   2   2   0   0
  0.3200866E+02  0.2481949E-09  0.2481949E-09  0.1200000E-08  0.1000000E-16
  1.000000000000000E-004
  CAR 
 phonon                                  
     16.83971728    -23.14940360  301     -1.78887707      1.00000000
    -23.149  0.0000E+00  0.0000E+00
    -23.016  0.0000E+00  0.0000E+00
    -22.883  0.0000E+00  0.0000E+00
    -22.750 -0.9807E-29 -0.1307E-29
    -22.616 -0.2468E-24 -0.3290E-25
    -22.483 -0.2534E-20 -0.3377E-21
    -22.350 -0.1059E-16 -0.1412E-17
    -22.216 -0.1736E-13 -0.2315E-14
    -22.083 -0.1180E-10 -0.1575E-11
    -21.950 -0.3207E-08 -0.4291E-09
    -21.816 -0.3437E-06 -0.4624E-07
    -21.683 -0.1407E-04 -0.1922E-05
    -21.550 -0.2025E-03 -0.2892E-04
    -21.417 -0.7077E-03 -0.1233E-03
    -21.283  0.2328E-02  0.1870E-03
    -21.150  0.1220E-01  0.1813E-02
    -21.017  0.1227E-01  0.3448E-02
    -20.883  0.2389E-02  0.3767E-02
    -20.750 -0.7078E-03  0.3672E-02
    -20.617 -0.2060E-03  0.3645E-02
    -20.483 -0.1444E-04  0.3643E-02
    -20.350 -0.3557E-06  0.3643E-02
    -20.217 -0.3344E-08  0.3643E-02
    -20.084 -0.1239E-10  0.3643E-02
    -19.950 -0.1837E-13  0.3643E-02
    -19.817 -0.2790E-16  0.3643E-02
    -19.684 -0.3030E-13  0.3643E-02
    -19.550 -0.2415E-10  0.3643E-02
    -19.417 -0.7715E-08  0.3643E-02
    -19.284 -0.9745E-06  0.3643E-02
    -19.150 -0.4738E-04  0.3637E-02
    -19.017 -0.8282E-03  0.3526E-02
    -18.884 -0.3996E-02  0.2993E-02
    -18.751  0.7115E-02  0.3942E-02
    -18.617  0.6332E-01  0.1238E-01
    -18.484  0.8118E-01  0.2320E-01
    -18.351  0.2305E-01  0.2628E-01
    -18.217 -0.3918E-02  0.2575E-01
    -18.084 -0.1740E-02  0.2552E-01
    -17.951 -0.1494E-03  0.2550E-01
    -17.818 -0.4379E-05  0.2550E-01
    -17.684 -0.4858E-07  0.2550E-01
    -17.551 -0.2116E-09  0.2550E-01
    -17.418 -0.3680E-12  0.2550E-01
    -17.284 -0.2549E-15  0.2550E-01
    -17.151  0.0000E+00  0.2550E-01
    -17.018  0.0000E+00  0.2550E-01
    -16.884  0.0000E+00  0.2550E-01
    -16.751  0.0000E+00  0.2550E-01
    -16.618  0.0000E+00  0.2550E-01
    -16.485  0.0000E+00  0.2550E-01
    -16.351  0.0000E+00  0.2550E-01
    -16.218  0.0000E+00  0.2550E-01
    -16.085  0.0000E+00  0.2550E-01
    -15.951 -0.2717E-29  0.2550E-01
    -15.818 -0.8552E-25  0.2550E-01
    -15.685 -0.1098E-20  0.2550E-01
    -15.551 -0.5747E-17  0.2550E-01
    -15.418 -0.1182E-13  0.2550E-01
    -15.285 -0.1009E-10  0.2550E-01
    -15.152 -0.3451E-08  0.2550E-01
    -15.018 -0.4675E-06  0.2550E-01
    -14.885 -0.2445E-04  0.2550E-01
    -14.752 -0.4634E-03  0.2544E-01
    -14.618 -0.2524E-02  0.2510E-01
    -14.485  0.3165E-02  0.2552E-01
    -14.352  0.3911E-01  0.3073E-01
    -14.218  0.5570E-01  0.3816E-01
    -14.085  0.1817E-01  0.4058E-01
    -13.952 -0.2355E-02  0.4027E-01
    -13.819 -0.1325E-02  0.4009E-01
    -13.685 -0.1244E-03  0.4007E-01
    -13.552 -0.3933E-05  0.4007E-01
    -13.419 -0.4685E-07  0.4007E-01
    -13.285 -0.2187E-09  0.4007E-01
    -13.152 -0.6260E-11  0.4007E-01
    -13.019 -0.1959E-08  0.4007E-01
    -12.886 -0.2596E-06  0.4007E-01
    -12.752 -0.1327E-04  0.4007E-01
    -12.619 -0.2451E-03  0.4004E-01
    -12.486 -0.1286E-02  0.3987E-01
    -12.352  0.1821E-02  0.4011E-01
    -12.219  0.2005E-01  0.4278E-01
    -12.086  0.2762E-01  0.4646E-01
    -11.952  0.8615E-02  0.4761E-01
    -11.819 -0.1587E-02  0.4740E-01
    -11.686 -0.3494E-02  0.4694E-01
    -11.553 -0.1054E-02  0.4679E-01
    -11.419  0.4190E-01  0.5238E-01
    -11.286  0.8703E-01  0.6398E-01
    -11.153  0.4327E-01  0.6975E-01
    -11.019 -0.6567E-03  0.6966E-01
    -10.886 -0.2939E-02  0.6927E-01
    -10.753 -0.3831E-03  0.6922E-01
    -10.619 -0.1575E-04  0.6922E-01
    -10.486 -0.2398E-06  0.6922E-01
    -10.353 -0.1421E-08  0.6922E-01
    -10.220 -0.1626E-10  0.6922E-01
    -10.086 -0.3464E-08  0.6922E-01
     -9.953 -0.3660E-06  0.6922E-01
     -9.820 -0.1476E-04  0.6921E-01
     -9.686 -0.2089E-03  0.6919E-01
     -9.553 -0.7077E-03  0.6909E-01
     -9.420  0.2440E-02  0.6942E-01
     -9.287  0.1233E-01  0.7106E-01
     -9.153  0.1214E-01  0.7268E-01
     -9.020  0.2277E-02  0.7298E-01
     -8.887 -0.7075E-03  0.7289E-01
     -8.753 -0.1997E-03  0.7286E-01
     -8.620 -0.1376E-04  0.7286E-01
     -8.487 -0.3339E-06  0.7286E-01
     -8.353 -0.5830E-08  0.7286E-01
     -8.220 -0.4134E-06  0.7286E-01
     -8.087 -0.2423E-04  0.7286E-01
     -7.954 -0.5206E-03  0.7279E-01
     -7.820 -0.3385E-02  0.7234E-01
     -7.687  0.1676E-02  0.7256E-01
     -7.554  0.5104E-01  0.7936E-01
     -7.420  0.8608E-01  0.9084E-01
     -7.287  0.3435E-01  0.9541E-01
     -7.154 -0.2546E-02  0.9507E-01
     -7.020 -0.2410E-02  0.9475E-01
     -6.887 -0.3207E-03  0.9471E-01
     -6.754 -0.9682E-03  0.9458E-01
     -6.621 -0.4136E-02  0.9403E-01
     -6.487  0.9438E-02  0.9529E-01
     -6.354  0.6717E-01  0.1042E+00
     -6.221  0.7869E-01  0.1147E+00
     -6.087  0.1962E-01  0.1173E+00
     -5.954 -0.4123E-02  0.1168E+00
     -5.821 -0.1540E-02  0.1166E+00
     -5.687 -0.1225E-03  0.1166E+00
     -5.554 -0.3406E-05  0.1166E+00
     -5.421 -0.2973E-05  0.1166E+00
     -5.288 -0.8372E-04  0.1166E+00
     -5.154 -0.7848E-03  0.1165E+00
     -5.021 -0.8993E-03  0.1163E+00
     -4.888  0.1114E-01  0.1178E+00
     -4.754  0.2861E-01  0.1216E+00
     -4.621  0.1733E-01  0.1239E+00
     -4.488  0.6730E-03  0.1240E+00
     -4.355 -0.1146E-02  0.1239E+00
     -4.221 -0.1801E-03  0.1239E+00
     -4.088 -0.8513E-05  0.1239E+00
     -3.955 -0.1473E-06  0.1239E+00
     -3.821 -0.9879E-09  0.1239E+00
     -3.688 -0.2628E-11  0.1239E+00
     -3.555 -0.2810E-14  0.1239E+00
     -3.421 -0.2906E-29  0.1239E+00
     -3.288 -0.9097E-25  0.1239E+00
     -3.155 -0.1162E-20  0.1239E+00
     -3.022 -0.6045E-17  0.1239E+00
     -2.888 -0.1237E-13  0.1239E+00
     -2.755 -0.1049E-10  0.1239E+00
     -2.622 -0.3568E-08  0.1239E+00
     -2.488 -0.4806E-06  0.1239E+00
     -2.355 -0.2498E-04  0.1239E+00
     -2.222 -0.4704E-03  0.1238E+00
     -2.088 -0.2537E-02  0.1235E+00
     -1.955  0.3288E-02  0.1239E+00
     -1.822  0.3937E-01  0.1291E+00
     -1.689  0.5558E-01  0.1366E+00
     -1.555  0.1793E-01  0.1389E+00
     -1.422 -0.2381E-02  0.1386E+00
     -1.289 -0.1311E-02  0.1385E+00
     -1.155 -0.1222E-03  0.1384E+00
     -1.022 -0.3837E-05  0.1384E+00
     -0.889 -0.4544E-07  0.1384E+00
     -0.755 -0.2108E-09  0.1384E+00
     -0.622 -0.3903E-12  0.1384E+00
     -0.489 -0.2913E-15  0.1384E+00
     -0.356  0.0000E+00  0.1384E+00
     -0.222 -0.2947E-31  0.1384E+00
     -0.089 -0.1199E-26  0.1384E+00
      0.044 -0.1992E-22  0.1384E+00
      0.178 -0.1349E-18  0.1384E+00
      0.311 -0.3610E-15  0.1384E+00
      0.444 -0.3989E-12  0.1384E+00
      0.577 -0.1776E-09  0.1384E+00
      0.711 -0.3144E-07  0.1384E+00
      0.844 -0.2170E-05  0.1384E+00
      0.977 -0.5564E-04  0.1384E+00
      1.111 -0.4570E-03  0.1384E+00
      1.244 -0.2422E-03  0.1383E+00
      1.377  0.6656E-02  0.1392E+00
      1.511  0.1449E-01  0.1412E+00
      1.644  0.7542E-02  0.1422E+00
      1.777 -0.2104E-04  0.1422E+00
      1.910 -0.5093E-03  0.1421E+00
      2.044 -0.7707E-04  0.1421E+00
      2.177 -0.1409E-03  0.1421E+00
      2.310 -0.6662E-03  0.1420E+00
      2.444  0.1171E-02  0.1421E+00
      2.577  0.1019E-01  0.1435E+00
      2.710  0.1069E-01  0.1449E+00
      2.844  0.2769E-02  0.1453E+00
      2.977  0.4082E-01  0.1507E+00
      3.110  0.8607E-01  0.1622E+00
      3.243  0.4472E-01  0.1682E+00
      3.377  0.9978E-02  0.1695E+00
      3.510  0.1057E-01  0.1709E+00
      3.643  0.3446E-02  0.1714E+00
      3.777 -0.6695E-03  0.1713E+00
      3.910 -0.2898E-03  0.1712E+00
      4.043 -0.2484E-04  0.1712E+00
      4.176 -0.7651E-06  0.1712E+00
      4.310 -0.3569E-05  0.1712E+00
      4.443 -0.1278E-03  0.1712E+00
      4.576 -0.1581E-02  0.1710E+00
      4.710 -0.4089E-02  0.1704E+00
      4.843  0.2033E-01  0.1732E+00
      4.976  0.7925E-01  0.1837E+00
      5.110  0.6637E-01  0.1926E+00
      5.243  0.8743E-02  0.1937E+00
      5.376 -0.6064E-02  0.1929E+00
      5.509 -0.4531E-02  0.1923E+00
      5.643  0.2640E-01  0.1958E+00
      5.776  0.8103E-01  0.2066E+00
      5.909  0.5626E-01  0.2141E+00
      6.043  0.3610E-01  0.2190E+00
      6.176  0.7980E-01  0.2296E+00
      6.309  0.5807E-01  0.2373E+00
      6.443  0.3111E-01  0.2415E+00
      6.576  0.3166E-01  0.2457E+00
      6.709  0.1053E-01  0.2471E+00
      6.842  0.1940E-01  0.2497E+00
      6.976  0.7732E-01  0.2600E+00
      7.109  0.6741E-01  0.2690E+00
      7.242  0.9701E-02  0.2703E+00
      7.376 -0.4272E-02  0.2697E+00
      7.509 -0.1619E-02  0.2695E+00
      7.642  0.8695E-03  0.2696E+00
      7.776  0.1006E-01  0.2709E+00
      7.909  0.1379E-01  0.2728E+00
      8.042  0.4279E-02  0.2734E+00
      8.175 -0.6231E-03  0.2733E+00
      8.309 -0.4790E-03  0.2732E+00
      8.442 -0.1128E-02  0.2731E+00
      8.575  0.3812E-03  0.2731E+00
      8.709  0.1649E-01  0.2753E+00
      8.842  0.2880E-01  0.2791E+00
      8.975  0.1189E-01  0.2807E+00
      9.108 -0.1221E-02  0.2806E+00
      9.242 -0.1064E-02  0.2804E+00
      9.375  0.6578E-02  0.2813E+00
      9.508  0.1378E-01  0.2831E+00
      9.642  0.3666E-02  0.2836E+00
      9.775  0.5017E-02  0.2843E+00
      9.908  0.5854E-01  0.2921E+00
     10.042  0.8257E-01  0.3031E+00
     10.175  0.3107E-01  0.3072E+00
     10.308  0.1028E-01  0.3086E+00
     10.441  0.7833E-02  0.3097E+00
     10.575 -0.3494E-03  0.3096E+00
     10.708 -0.3459E-02  0.3092E+00
     10.841  0.1162E-01  0.3107E+00
     10.975  0.4802E-01  0.3171E+00
     11.108  0.5260E-01  0.3241E+00
     11.241  0.6951E-01  0.3334E+00
     11.375  0.7776E-01  0.3437E+00
     11.508  0.3573E-01  0.3485E+00
     11.641  0.2502E-01  0.3518E+00
     11.774  0.1292E-01  0.3536E+00
     11.908 -0.3092E-03  0.3535E+00
     12.041 -0.9964E-03  0.3534E+00
     12.174 -0.1329E-03  0.3534E+00
     12.308 -0.5431E-04  0.3534E+00
     12.441 -0.4272E-03  0.3533E+00
     12.574 -0.3587E-03  0.3533E+00
     12.708  0.5859E-02  0.3540E+00
     12.841  0.1195E-01  0.3556E+00
     12.974  0.5262E-02  0.3563E+00
     13.107  0.3307E-01  0.3607E+00
     13.241  0.9692E-01  0.3737E+00
     13.374  0.8109E-01  0.3845E+00
     13.507  0.1162E-01  0.3860E+00
     13.641  0.1310E-01  0.3878E+00
     13.774  0.9160E-01  0.4000E+00
     13.907  0.9652E-01  0.4128E+00
     14.040  0.2151E-01  0.4157E+00
     14.174  0.3627E-01  0.4205E+00
     14.307  0.8509E-01  0.4319E+00
     14.440  0.4218E-01  0.4375E+00
     14.574 -0.4831E-02  0.4369E+00
     14.707  0.1138E-01  0.4384E+00
     14.840  0.7323E-01  0.4481E+00
     14.974  0.7317E-01  0.4579E+00
     15.107  0.1396E-01  0.4598E+00
     15.240 -0.4246E-02  0.4592E+00
     15.373 -0.1215E-02  0.4590E+00
     15.507 -0.8437E-04  0.4590E+00
     15.640 -0.2061E-05  0.4590E+00
     15.773 -0.1923E-07  0.4590E+00
     15.907 -0.7071E-10  0.4590E+00
     16.040 -0.1040E-12  0.4590E+00
     16.173 -0.7282E-16  0.4590E+00
     16.307  0.0000E+00  0.4590E+00
     16.440  0.0000E+00  0.4590E+00
     16.573  0.0000E+00  0.4590E+00
     16.706  0.0000E+00  0.4590E+00
     16.840  0.0000E+00  0.4590E+00
