    2    2   61    1
  0.3200866E+02  0.2481949E-09  0.2481949E-09  0.1200000E-08  0.1000000E-16
  1.000000000000000E-004
  CAR 
 phonon                                  
      8      4     14
 
  0.0000000E+00  0.0000000E+00  0.0000000E+00  0.1111111E+00
    1      -21.149404   1.000000
    2       -9.287964   1.000000
    3       -4.802547   1.000000
    4       -4.801348   1.000000
    5        1.449339  -0.000000
    6        2.600815  -0.000000
    7        3.400472  -0.000000
    8        6.435891   0.000000
    9        6.436439   0.000000
   10        6.561015   0.000000
   11        7.805680   0.000000
   12        9.446499   0.000000
   13       10.275385   0.000000
   14       12.785895   0.000000
 
  0.3333333E+00  0.2775558E-16  0.4930381E-31  0.4444444E+00
    1      -18.593425   1.000000
    2      -11.351096   1.000000
    3       -7.504372   1.000000
    4       -6.338757   1.000000
    5        3.045490  -0.000000
    6        4.959232   0.000000
    7        5.743597   0.000000
    8        6.132534   0.000000
    9        6.961490   0.000000
   10        9.940593   0.000000
   11       11.264105   0.000000
   12       13.792575   0.000000
   13       14.242159   0.000000
   14       14.839686   0.000000
 
  0.3333333E+00  0.3333333E+00  0.4930381E-31  0.2222222E+00
    1      -14.318019   1.000000
    2      -14.317923   1.000000
    3      -12.188378   1.000000
    4       -1.789002   0.500530
    5       -1.788752   0.499470
    6        8.761282   0.000000
    7       10.961176   0.000000
    8       10.961579   0.000000
    9       11.577185   0.000000
   10       13.169649   0.000000
   11       13.171347   0.000000
   12       13.271542   0.000000
   13       13.274536   0.000000
   14       13.741802   0.000000
 
 -0.3333333E+00  0.3333333E+00  0.0000000E+00  0.2222222E+00
    1      -18.593466   1.000000
    2      -11.351470   1.000000
    3       -7.503687   1.000000
    4       -6.338720   1.000000
    5        3.045374  -0.000000
    6        4.959198   0.000000
    7        5.743439   0.000000
    8        6.132529   0.000000
    9        6.961488   0.000000
   10        9.940596   0.000000
   11       11.264079   0.000000
   12       13.791824   0.000000
   13       14.242951   0.000000
   14       14.839717   0.000000
