phonon                                  
           1
     2.481949    0.000000    0.000000
    -1.240974    2.149431    0.000000
     0.000000    0.000000   12.000000
   C 
   2
Direct configuration=     1
   0.00000000  0.00000000  0.14167000
   0.33333001  0.66667002  0.14167000
Direct configuration=     2
   0.00402909  0.00000000  0.14167000
   0.33333001  0.66667002  0.14167000
Direct configuration=     3
  -0.00402909  0.00000000  0.14167000
   0.33333001  0.66667002  0.14167000
Direct configuration=     4
   0.00232620  0.00465239  0.14167000
   0.33333001  0.66667002  0.14167000
Direct configuration=     5
  -0.00232620 -0.00465239  0.14167000
   0.33333001  0.66667002  0.14167000
Direct configuration=     6
  -0.00000000 -0.00000000  0.14250334
   0.33333001  0.66667002  0.14167000
Direct configuration=     7
   0.00000000  0.00000000  0.14083667
   0.33333001  0.66667002  0.14167000
Direct configuration=     8
   0.00000000  0.00000000  0.14167000
   0.33735910  0.66667002  0.14167000
Direct configuration=     9
   0.00000000  0.00000000  0.14167000
   0.32930091  0.66667002  0.14167000
Direct configuration=    10
   0.00000000  0.00000000  0.14167000
   0.33565620  0.67132242  0.14167000
Direct configuration=    11
   0.00000000  0.00000000  0.14167000
   0.33100381  0.66201763  0.14167000
Direct configuration=    12
   0.00000000  0.00000000  0.14167000
   0.33333001  0.66667002  0.14250334
Direct configuration=    13
   0.00000000  0.00000000  0.14167000
   0.33333001  0.66667002  0.14083667
