 Entering Gaussian System, Link 0=g03
 Input=scan_01.gjf
 Output=scan_01.log
 Initial command:
 /state/partition1/apps/g03sun/l1.exe /state/partition1/jobs/chengtao/GAU/55930/Gau-13638.inp -scrdir=/state/partition1/jobs/chengtao/GAU/55930/
 Entering Link 1 = /state/partition1/apps/g03sun/l1.exe PID=     13639.
  
 Copyright (c) 1988,1990,1992,1993,1995,1998,2003,2004, Gaussian, Inc.
                  All Rights Reserved.
  
 This is the Gaussian(R) 03 program.  It is based on the
 the Gaussian(R) 98 system (copyright 1998, Gaussian, Inc.),
 the Gaussian(R) 94 system (copyright 1995, Gaussian, Inc.),
 the Gaussian 92(TM) system (copyright 1992, Gaussian, Inc.),
 the Gaussian 90(TM) system (copyright 1990, Gaussian, Inc.),
 the Gaussian 88(TM) system (copyright 1988, Gaussian, Inc.),
 the Gaussian 86(TM) system (copyright 1986, Carnegie Mellon
 University), and the Gaussian 82(TM) system (copyright 1983,
 Carnegie Mellon University). Gaussian is a federally registered
 trademark of Gaussian, Inc.
  
 This software contains proprietary and confidential information,
 including trade secrets, belonging to Gaussian, Inc.
  
 This software is provided under written license and may be
 used, copied, transmitted, or stored only in accord with that
 written license.
  
 The following legend is applicable only to US Government
 contracts under FAR:
  
                    RESTRICTED RIGHTS LEGEND
  
 Use, reproduction and disclosure by the US Government is
 subject to restrictions as set forth in subparagraphs (a)
 and (c) of the Commercial Computer Software - Restricted
 Rights clause in FAR 52.227-19.
  
 Gaussian, Inc.
 340 Quinnipiac St., Bldg. 40, Wallingford CT 06492
  
  
 ---------------------------------------------------------------
 Warning -- This program may not be used in any manner that
 competes with the business of Gaussian, Inc. or will provide
 assistance to any competitor of Gaussian, Inc.  The licensee
 of this program is prohibited from giving any competitor of
 Gaussian, Inc. access to this program.  By using this program,
 the user acknowledges that Gaussian, Inc. is engaged in the
 business of creating and licensing software in the field of
 computational chemistry and represents and warrants to the
 licensee that it is not a competitor of Gaussian, Inc. and that
 it will not use this program in any manner prohibited above.
 ---------------------------------------------------------------
  

 Cite this work as:
 Gaussian 03, Revision D.02,
 M. J. Frisch, G. W. Trucks, H. B. Schlegel, G. E. Scuseria, 
 M. A. Robb, J. R. Cheeseman, J. A. Montgomery, Jr., T. Vreven, 
 K. N. Kudin, J. C. Burant, J. M. Millam, S. S. Iyengar, J. Tomasi, 
 V. Barone, B. Mennucci, M. Cossi, G. Scalmani, N. Rega, 
 G. A. Petersson, H. Nakatsuji, M. Hada, M. Ehara, K. Toyota, 
 R. Fukuda, J. Hasegawa, M. Ishida, T. Nakajima, Y. Honda, O. Kitao, 
 H. Nakai, M. Klene, X. Li, J. E. Knox, H. P. Hratchian, J. B. Cross, 
 V. Bakken, C. Adamo, J. Jaramillo, R. Gomperts, R. E. Stratmann, 
 O. Yazyev, A. J. Austin, R. Cammi, C. Pomelli, J. W. Ochterski, 
 P. Y. Ayala, K. Morokuma, G. A. Voth, P. Salvador, J. J. Dannenberg, 
 V. G. Zakrzewski, S. Dapprich, A. D. Daniels, M. C. Strain, 
 O. Farkas, D. K. Malick, A. D. Rabuck, K. Raghavachari, 
 J. B. Foresman, J. V. Ortiz, Q. Cui, A. G. Baboul, S. Clifford, 
 J. Cioslowski, B. B. Stefanov, G. Liu, A. Liashenko, P. Piskorz, 
 I. Komaromi, R. L. Martin, D. J. Fox, T. Keith, M. A. Al-Laham, 
 C. Y. Peng, A. Nanayakkara, M. Challacombe, P. M. W. Gill, 
 B. Johnson, W. Chen, M. W. Wong, C. Gonzalez, and J. A. Pople, 
 Gaussian, Inc., Wallingford CT, 2004.
 
 ******************************************
 Gaussian 03:  EM64T-G03RevD.02  1-Mar-2006
                26-May-2013 
 ******************************************
 ------------------------------------------------------
 # opt=modredundant b3lyp/6-311g(d,p) geom=connectivity
 ------------------------------------------------------
 1/14=-1,18=120,26=3,38=1,57=2/1,3;
 2/9=110,17=6,18=5,40=1/2;
 3/5=4,6=6,7=101,11=2,16=1,25=1,30=1,74=-5/1,2,3;
 4//1;
 5/5=2,38=5/2;
 6/7=2,8=2,9=2,10=2,28=1/1;
 7//1,2,3,16;
 1/14=-1,18=20/3(3);
 2/9=110/2;
 6/7=2,8=2,9=2,10=2,19=2,28=1/1;
 99//99;
 2/9=110/2;
 3/5=4,6=6,7=101,11=2,16=1,25=1,30=1,74=-5/1,2,3;
 4/5=5,16=3/1;
 5/5=2,38=5/2;
 7//1,2,3,16;
 1/14=-1,18=20/3(-5);
 2/9=110/2;
 6/7=2,8=2,9=2,10=2,19=2,28=1/1;
 99/9=1/99;
 -------------------
 Title Card Required
 -------------------
 Symbolic Z-matrix:
 Charge =  0 Multiplicity = 3
 N                     0.        0.       -1.19843 
 N                     0.        0.       -0.07214 
 O                     0.        0.        1.11174 
 
 The following ModRedundant input section has been read:
 B    2    3 0.6419 F                                                          
 Iteration  1 RMS(Cart)=  0.08164966 RMS(Int)=  0.41205909
 Iteration  2 RMS(Cart)=  0.08164966 RMS(Int)=  0.31205909
 Iteration  3 RMS(Cart)=  0.08164966 RMS(Int)=  0.21205909
 Iteration  4 RMS(Cart)=  0.08164966 RMS(Int)=  0.11205909
 Iteration  5 RMS(Cart)=  0.08164966 RMS(Int)=  0.01205909
 Iteration  6 RMS(Cart)=  0.00984621 RMS(Int)=  0.00000000
 Iteration  7 RMS(Cart)=  0.00000000 RMS(Int)=  0.00000000
 Iteration  1 RMS(Cart)=  0.00000000 RMS(Int)=  0.00000000

 GradGradGradGradGradGradGradGradGradGradGradGradGradGradGradGradGradGrad
 Berny optimization.
 Initialization pass.
                           ----------------------------
                           !    Initial Parameters    !
                           ! (Angstroms and Degrees)  !
 --------------------------                            --------------------------
 ! Name  Definition              Value          Derivative Info.                !
 --------------------------------------------------------------------------------
 ! R1    R(1,2)                  1.1263         estimate D2E/DX2                !
 ! R2    R(2,3)                  0.6419         Frozen                          !
 ! A1    L(1,2,3,-1,-1)        180.0            estimate D2E/DX2                !
 ! A2    L(1,2,3,-2,-2)        180.0            estimate D2E/DX2                !
 --------------------------------------------------------------------------------
 Trust Radius=3.00D-01 FncErr=1.00D-07 GrdErr=1.00D-06
 Number of steps in this run=  20 maximum allowed number of steps= 100.
 GradGradGradGradGradGradGradGradGradGradGradGradGradGradGradGradGradGrad

                          Input orientation:                          
 ---------------------------------------------------------------------
 Center     Atomic     Atomic              Coordinates (Angstroms)
 Number     Number      Type              X           Y           Z
 ---------------------------------------------------------------------
    1          7             0        0.000000    0.000000   -1.017779
    2          7             0        0.000000    0.000000    0.108510
    3          8             0        0.000000    0.000000    0.750449
 ---------------------------------------------------------------------
                    Distance matrix (angstroms):
                    1          2          3
     1  N    0.000000
     2  N    1.126289   0.000000
     3  O    1.768228   0.641939   0.000000
 Stoichiometry    N2O(3)
 Framework group  C*V[C*(NNO)]
 Deg. of freedom     2
 Full point group                 C*V
 Largest Abelian subgroup         C2V     NOp   4
 Largest concise Abelian subgroup C1      NOp   1
                         Standard orientation:                         
 ---------------------------------------------------------------------
 Center     Atomic     Atomic              Coordinates (Angstroms)
 Number     Number      Type              X           Y           Z
 ---------------------------------------------------------------------
    1          7             0        0.000000    0.000000   -1.001357
    2          7             0        0.000000    0.000000    0.124932
    3          8             0        0.000000    0.000000    0.766871
 ---------------------------------------------------------------------
 Rotational constants (GHZ):      0.0000000     21.3545262     21.3545262
 Standard basis: 6-311G(d,p) (5D, 7F)
 There are    27 symmetry adapted basis functions of A1  symmetry.
 There are     3 symmetry adapted basis functions of A2  symmetry.
 There are    12 symmetry adapted basis functions of B1  symmetry.
 There are    12 symmetry adapted basis functions of B2  symmetry.
 Integral buffers will be    131072 words long.
 Raffenetti 2 integral format.
 Two-electron integral symmetry is turned on.
    54 basis functions,    96 primitive gaussians,    57 cartesian basis functions
    12 alpha electrons       10 beta electrons
       nuclear repulsion energy        85.9444825557 Hartrees.
 NAtoms=    3 NActive=    3 NUniq=    3 SFac= 7.50D-01 NAtFMM=   80 NAOKFM=F Big=F
 One-electron integrals computed using PRISM.
 NBasis=    54 RedAO= T  NBF=    27     3    12    12
 NBsUse=    54 1.00D-06 NBFU=    27     3    12    12
 Harris functional with IExCor=  402 diagonalized for initial guess.
 ExpMin= 2.01D-01 ExpMax= 8.59D+03 ExpMxC= 1.30D+03 IAcc=1 IRadAn=         1 AccDes= 1.00D-06
 HarFok:  IExCor= 402 AccDes= 1.00D-06 IRadAn=         1 IDoV=1
 ScaDFX=  1.000000  1.000000  1.000000  1.000000
 Initial guess orbital symmetries:
 Alpha Orbitals:
       Occupied  (SG) (SG) (SG) (SG) (SG) (PI) (PI) (SG) (SG) (PI)
                 (PI) (PI)
       Virtual   (PI) (SG) (SG) (PI) (PI) (SG) (PI) (PI) (SG) (SG)
                 (PI) (PI) (SG) (SG) (DLTA) (DLTA) (PI) (PI) (DLTA)
                 (DLTA) (SG) (SG) (PI) (PI) (DLTA) (DLTA) (SG)
                 (PI) (PI) (SG) (PI) (PI) (PI) (PI) (SG) (PI) (PI)
                 (SG) (SG) (SG) (SG) (SG)
 Beta  Orbitals:
       Occupied  (SG) (SG) (SG) (SG) (SG) (PI) (PI) (SG) (SG) (PI)
       Virtual   (PI) (PI) (PI) (SG) (SG) (PI) (PI) (SG) (PI) (PI)
                 (SG) (SG) (PI) (PI) (SG) (SG) (DLTA) (DLTA) (PI)
                 (PI) (DLTA) (DLTA) (SG) (SG) (PI) (PI) (DLTA)
                 (DLTA) (SG) (PI) (PI) (SG) (PI) (PI) (PI) (PI)
                 (SG) (PI) (PI) (SG) (SG) (SG) (SG) (SG)
 <S**2> of initial guess= 2.0000
 Requested convergence on RMS density matrix=1.00D-08 within 128 cycles.
 Requested convergence on MAX density matrix=1.00D-06.
 Requested convergence on             energy=1.00D-06.
 No special actions if energy rises.
 Keep R1 and R2 integrals in memory in canonical form, NReq=     4483355.
 Integral accuracy reduced to 1.0D-05 until final iterations.
 Initial convergence to 1.0D-05 achieved.  Increase integral accuracy.
 SCF Done:  E(UB+HF-LYP) =  -182.186075005     A.U. after   19 cycles
             Convg  =    0.2381D-08             -V/T =  1.9452
             S**2   =   2.0021
 Annihilation of the first spin contaminant:
 S**2 before annihilation     2.0021,   after     2.0000

 **********************************************************************

            Population analysis using the SCF density.

 **********************************************************************

 Orbital symmetries:
 Alpha Orbitals:
       Occupied  (SG) (SG) (SG) (SG) (SG) (PI) (PI) (SG) (SG) (PI)
                 (PI) (SG)
       Virtual   (PI) (PI) (PI) (PI) (SG) (SG) (PI) (PI) (SG) (SG)
                 (PI) (PI) (SG) (?A) (?A) (?A) (PI) (PI) (?B) (?B)
                 (?B) (?C) (PI) (PI) (?C) (?C) (SG) (PI) (PI) (SG)
                 (PI) (PI) (PI) (PI) (SG) (PI) (PI) (SG) (SG) (SG)
                 (SG) (SG)
 Beta  Orbitals:
       Occupied  (SG) (SG) (SG) (SG) (SG) (PI) (PI) (SG) (SG) (PI)
       Virtual   (PI) (SG) (PI) (PI) (SG) (PI) (PI) (SG) (PI) (PI)
                 (SG) (SG) (PI) (PI) (SG) (SG) (DLTA) (DLTA) (PI)
                 (PI) (DLTA) (DLTA) (SG) (SG) (PI) (PI) (DLTA)
                 (DLTA) (SG) (PI) (PI) (SG) (PI) (PI) (PI) (PI)
                 (SG) (PI) (PI) (SG) (SG) (SG) (SG) (SG)
 Unable to determine electronic state:  partially filled degenerate orbitals.
 Alpha  occ. eigenvalues --  -19.45862 -14.72824 -14.35891  -1.78297  -1.18773
 Alpha  occ. eigenvalues --   -1.08667  -1.07379  -0.77131  -0.47883  -0.38875
 Alpha  occ. eigenvalues --   -0.33885   0.05855
 Alpha virt. eigenvalues --    0.18030   0.20018   0.31890   0.33241   0.34586
 Alpha virt. eigenvalues --    0.50715   0.57845   0.60637   0.61673   0.76045
 Alpha virt. eigenvalues --    0.89248   0.90377   1.09508   1.37157   1.42100
 Alpha virt. eigenvalues --    1.42153   1.82087   1.85462   1.95598   1.95602
 Alpha virt. eigenvalues --    2.35161   2.78962   2.92430   2.95140   2.99407
 Alpha virt. eigenvalues --    2.99436   3.07753   3.12159   3.13314   3.36589
 Alpha virt. eigenvalues --    3.65068   3.69350   4.42147   4.43979   4.45001
 Alpha virt. eigenvalues --    5.41029   5.42678   5.77071   6.96357  35.45543
 Alpha virt. eigenvalues --   36.84529  51.49065
  Beta  occ. eigenvalues --  -19.44862 -14.72920 -14.33729  -1.77255  -1.13959
  Beta  occ. eigenvalues --   -1.06696  -1.06488  -0.75227  -0.44453  -0.31624
  Beta virt. eigenvalues --   -0.20258   0.16710   0.20822   0.22049   0.37129
  Beta virt. eigenvalues --    0.37656   0.37972   0.52090   0.61922   0.63587
  Beta virt. eigenvalues --    0.63870   0.78676   0.91525   0.91651   1.12425
  Beta virt. eigenvalues --    1.39454   1.43896   1.43997   1.86697   1.87453
  Beta virt. eigenvalues --    2.01210   2.01863   2.37438   2.80704   2.96242
  Beta virt. eigenvalues --    2.96626   3.01039   3.01090   3.10041   3.13564
  Beta virt. eigenvalues --    3.14300   3.38298   3.71043   3.72897   4.44768
  Beta virt. eigenvalues --    4.45010   4.47238   5.43408   5.43543   5.78137
  Beta virt. eigenvalues --    6.97417  35.47360  36.85080  51.50173
          Condensed to atoms (all electrons):
              1          2          3
     1  N    9.573526   4.424282  -6.419703
     2  N    4.424282  59.447524 -55.178199
     3  O   -6.419703 -55.178199  67.326191
 Mulliken atomic charges:
              1
     1  N   -0.578105
     2  N   -1.693606
     3  O    2.271711
 Sum of Mulliken charges=   0.00000
 Atomic charges with hydrogens summed into heavy atoms:
              1
     1  N   -0.578105
     2  N   -1.693606
     3  O    2.271711
 Sum of Mulliken charges=   0.00000
          Atomic-Atomic Spin Densities.
              1          2          3
     1  N    3.419813   4.099459  -6.231556
     2  N    4.099459  54.641335 -55.880830
     3  O   -6.231556 -55.880830  59.964707
 Mulliken atomic spin densities:
              1
     1  N    1.287716
     2  N    2.859963
     3  O   -2.147679
 Sum of Mulliken spin densities=   2.00000
 Electronic spatial extent (au):  <R**2>=    80.0091
 Charge=     0.0000 electrons
 Dipole moment (field-independent basis, Debye):
    X=     0.0000    Y=     0.0000    Z=     1.8722  Tot=     1.8722
 Quadrupole moment (field-independent basis, Debye-Ang):
   XX=   -17.2160   YY=   -15.8251   ZZ=   -17.7376
   XY=     0.0000   XZ=     0.0000   YZ=     0.0000
 Traceless Quadrupole moment (field-independent basis, Debye-Ang):
   XX=    -0.2898   YY=     1.1012   ZZ=    -0.8114
   XY=     0.0000   XZ=     0.0000   YZ=     0.0000
 Octapole moment (field-independent basis, Debye-Ang**2):
  XXX=     0.0000  YYY=     0.0000  ZZZ=     6.8801  XYY=     0.0000
  XXY=     0.0000  XXZ=     1.4220  XZZ=     0.0000  YZZ=     0.0000
  YYZ=     0.3677  XYZ=     0.0000
 Hexadecapole moment (field-independent basis, Debye-Ang**3):
 XXXX=   -18.5250 YYYY=   -16.5232 ZZZZ=   -68.9766 XXXY=     0.0000
 XXXZ=     0.0000 YYYX=     0.0000 YYYZ=     0.0000 ZZZX=     0.0000
 ZZZY=     0.0000 XXYY=    -5.8413 XXZZ=   -14.8523 YYZZ=   -13.4388
 XXYZ=     0.0000 YYXZ=     0.0000 ZZXY=     0.0000
 N-N= 8.594448255570D+01 E-N=-6.048443433601D+02  KE= 1.927491665799D+02
 Symmetry A1   KE= 1.753234062063D+02
 Symmetry A2   KE= 2.631755359881D-35
 Symmetry B1   KE= 9.674024639271D+00
 Symmetry B2   KE= 7.751735734343D+00
                          Isotropic Fermi Contact Couplings
        Atom                 a.u.       MegaHertz       Gauss      10(-4) cm-1
     1  N(14)              0.48082      77.67774      27.71735      25.91051
     2  N(14)             -0.02104      -3.39906      -1.21287      -1.13381
     3  O(17)              1.26976    -384.86061    -137.32783    -128.37568
 --------------------------------------------------------
       Center         ----  Spin Dipole Couplings  ----
                      3XX-RR        3YY-RR        3ZZ-RR
 --------------------------------------------------------
     1   Atom       -1.102046      1.891864     -0.789818
     2   Atom       -0.144528     -0.045170      0.189698
     3   Atom       -0.357166      0.574733     -0.217567
 --------------------------------------------------------
                        XY            XZ            YZ
 --------------------------------------------------------
     1   Atom        0.000000      0.000000      0.000000
     2   Atom        0.000000      0.000000      0.000000
     3   Atom        0.000000      0.000000      0.000000
 --------------------------------------------------------


 ---------------------------------------------------------------------------------
              Anisotropic Spin Dipole Couplings in Principal Axis System
 ---------------------------------------------------------------------------------

       Atom             a.u.   MegaHertz   Gauss  10(-4) cm-1        Axes

              Baa    -1.1020   -42.503   -15.166   -14.178  1.0000  0.0000  0.0000
     1 N(14)  Bbb    -0.7898   -30.462   -10.869   -10.161  0.0000  0.0000  1.0000
              Bcc     1.8919    72.965    26.036    24.339  0.0000  1.0000  0.0000
 
              Baa    -0.1445    -5.574    -1.989    -1.859  1.0000  0.0000  0.0000
     2 N(14)  Bbb    -0.0452    -1.742    -0.622    -0.581  0.0000  1.0000  0.0000
              Bcc     0.1897     7.316     2.611     2.440  0.0000  0.0000  1.0000
 
              Baa    -0.3572    25.844     9.222     8.621  1.0000  0.0000  0.0000
     3 O(17)  Bbb    -0.2176    15.743     5.617     5.251  0.0000  0.0000  1.0000
              Bcc     0.5747   -41.587   -14.839   -13.872  0.0000  1.0000  0.0000
 

 ---------------------------------------------------------------------------------

 ***** Axes restored to original set *****
 -------------------------------------------------------------------
 Center     Atomic                   Forces (Hartrees/Bohr)
 Number     Number              X              Y              Z
 -------------------------------------------------------------------
    1          7           0.000000000    0.000000000   -0.327041954
    2          7           0.000000000    0.000000000   -7.938831049
    3          8           0.000000000    0.000000000    8.265873004
 -------------------------------------------------------------------
 Cartesian Forces:  Max     8.265873004 RMS     3.821818232

 GradGradGradGradGradGradGradGradGradGradGradGradGradGradGradGradGradGrad
 Berny optimization.
 Internal  Forces:  Max     8.265873004 RMS     4.136170117
 Search for a local minimum.
 Step number   1 out of a maximum of  20
 All quantities printed in internal units (Hartrees-Bohrs-Radians)
 Second derivative matrix not updated -- first step.
 The second derivative matrix:
                          R1        R2        A1        A2
           R1           1.52660
           R2           0.00000  17.34000
           A1           0.00000   0.00000   0.25000
           A2           0.00000   0.00000   0.00000   0.25000
     Eigenvalues ---    0.25000   0.25000   1.526601000.00000
 RFO step:  Lambda=-6.71116778D-02.
 Linear search not attempted -- first point.
 Iteration  1 RMS(Cart)=  0.08164966 RMS(Int)=  0.00260407
 Iteration  2 RMS(Cart)=  0.00212621 RMS(Int)=  0.00000000
 Iteration  3 RMS(Cart)=  0.00000000 RMS(Int)=  0.00000000
 Iteration  1 RMS(Cart)=  0.00000000 RMS(Int)=  0.00000000
 Variable       Old X    -DE/DX   Delta X   Delta X   Delta X     New X
                                 (Linear)    (Quad)   (Total)
    R1        2.12838   0.32704   0.00000   0.20521   0.20521   2.33359
    R2        1.21309   8.26587   0.00000   0.00000   0.00000   1.21309
    A1        3.14159   0.00000   0.00000   0.00000   0.00000   3.14159
    A2        3.14159   0.00000   0.00000   0.00000   0.00000   3.14159
         Item               Value     Threshold  Converged?
 Maximum Force            0.327042     0.000450     NO 
 RMS     Force            0.188818     0.000300     NO 
 Maximum Displacement     0.136805     0.001800     NO 
 RMS     Displacement     0.083776     0.001200     NO 
 Predicted change in Energy=-3.496888D-02
 GradGradGradGradGradGradGradGradGradGradGradGradGradGradGradGradGradGrad

                          Input orientation:                          
 ---------------------------------------------------------------------
 Center     Atomic     Atomic              Coordinates (Angstroms)
 Number     Number      Type              X           Y           Z
 ---------------------------------------------------------------------
    1          7             0        0.000000    0.000000   -1.090174
    2          7             0        0.000000    0.000000    0.144707
    3          8             0        0.000000    0.000000    0.786646
 ---------------------------------------------------------------------
                    Distance matrix (angstroms):
                    1          2          3
     1  N    0.000000
     2  N    1.234880   0.000000
     3  O    1.876819   0.641939   0.000000
 Stoichiometry    N2O(3)
 Framework group  C*V[C*(NNO)]
 Deg. of freedom     2
 Full point group                 C*V
 Largest Abelian subgroup         C2V     NOp   4
 Largest concise Abelian subgroup C1      NOp   1
                         Standard orientation:                         
 ---------------------------------------------------------------------
 Center     Atomic     Atomic              Coordinates (Angstroms)
 Number     Number      Type              X           Y           Z
 ---------------------------------------------------------------------
    1          7             0        0.000000    0.000000   -1.075396
    2          7             0        0.000000    0.000000    0.159484
    3          8             0        0.000000    0.000000    0.801423
 ---------------------------------------------------------------------
 Rotational constants (GHZ):      0.0000000     18.8408309     18.8408309
 Standard basis: 6-311G(d,p) (5D, 7F)
 There are    27 symmetry adapted basis functions of A1  symmetry.
 There are     3 symmetry adapted basis functions of A2  symmetry.
 There are    12 symmetry adapted basis functions of B1  symmetry.
 There are    12 symmetry adapted basis functions of B2  symmetry.
 Integral buffers will be    131072 words long.
 Raffenetti 2 integral format.
 Two-electron integral symmetry is turned on.
    54 basis functions,    96 primitive gaussians,    57 cartesian basis functions
    12 alpha electrons       10 beta electrons
       nuclear repulsion energy        82.9503105750 Hartrees.
 NAtoms=    3 NActive=    3 NUniq=    3 SFac= 7.50D-01 NAtFMM=   80 NAOKFM=F Big=F
 One-electron integrals computed using PRISM.
 NBasis=    54 RedAO= T  NBF=    27     3    12    12
 NBsUse=    54 1.00D-06 NBFU=    27     3    12    12
 Initial guess read from the read-write file:
 Initial guess orbital symmetries:
 Alpha Orbitals:
       Occupied  (SG) (SG) (SG) (SG) (SG) (PI) (PI) (SG) (SG) (PI)
                 (PI) (SG)
       Virtual   (PI) (PI) (PI) (PI) (SG) (SG) (PI) (PI) (SG) (SG)
                 (PI) (PI) (SG) (?A) (?A) (?A) (PI) (PI) (?B) (?B)
                 (?B) (?C) (PI) (PI) (?C) (?C) (SG) (PI) (PI) (SG)
                 (PI) (PI) (PI) (PI) (SG) (PI) (PI) (SG) (SG) (SG)
                 (SG) (SG)
 Beta  Orbitals:
       Occupied  (SG) (SG) (SG) (SG) (SG) (PI) (PI) (SG) (SG) (PI)
       Virtual   (PI) (SG) (PI) (PI) (SG) (PI) (PI) (SG) (PI) (PI)
                 (SG) (SG) (PI) (PI) (SG) (SG) (DLTA) (DLTA) (PI)
                 (PI) (DLTA) (DLTA) (SG) (SG) (PI) (PI) (DLTA)
                 (DLTA) (SG) (PI) (PI) (SG) (PI) (PI) (PI) (PI)
                 (SG) (PI) (PI) (SG) (SG) (SG) (SG) (SG)
 <S**2> of initial guess= 2.0023
 Harris functional with IExCor=  402 diagonalized for initial guess.
 ExpMin= 2.01D-01 ExpMax= 8.59D+03 ExpMxC= 1.30D+03 IAcc=1 IRadAn=         1 AccDes= 1.00D-06
 HarFok:  IExCor= 402 AccDes= 1.00D-06 IRadAn=         1 IDoV=1
 ScaDFX=  1.000000  1.000000  1.000000  1.000000
 Requested convergence on RMS density matrix=1.00D-08 within 128 cycles.
 Requested convergence on MAX density matrix=1.00D-06.
 Requested convergence on             energy=1.00D-06.
 No special actions if energy rises.
 Keep R1 and R2 integrals in memory in canonical form, NReq=     4483362.
 Integral accuracy reduced to 1.0D-05 until final iterations.
 Initial convergence to 1.0D-05 achieved.  Increase integral accuracy.
 SCF Done:  E(UB+HF-LYP) =  -182.236093941     A.U. after   19 cycles
             Convg  =    0.3683D-08             -V/T =  1.9468
             S**2   =   2.0026
 Annihilation of the first spin contaminant:
 S**2 before annihilation     2.0026,   after     2.0000
 ***** Axes restored to original set *****
 -------------------------------------------------------------------
 Center     Atomic                   Forces (Hartrees/Bohr)
 Number     Number              X              Y              Z
 -------------------------------------------------------------------
    1          7           0.000000000    0.000000000   -0.200493258
    2          7           0.000000000    0.000000000   -8.051000485
    3          8           0.000000000    0.000000000    8.251493744
 -------------------------------------------------------------------
 Cartesian Forces:  Max     8.251493744 RMS     3.843406408

 GradGradGradGradGradGradGradGradGradGradGradGradGradGradGradGradGradGrad
 Berny optimization.
 Internal  Forces:  Max     8.251493744 RMS     4.126964579
 Search for a local minimum.
 Step number   2 out of a maximum of  20
 All quantities printed in internal units (Hartrees-Bohrs-Radians)
 Update second derivatives using D2CorX and points  1  2
 Trust test= 1.43D+00 RLast= 2.05D-01 DXMaxT set to 4.24D-01
 The second derivative matrix:
                          R1        R2        A1        A2
           R1           0.61668
           R2           0.07007  17.34796
           A1           0.00000   0.00000   0.25000
           A2           0.00000   0.00000   0.00000   0.25000
     Eigenvalues ---    0.25000   0.25000   0.616681000.00000
 RFO step:  Lambda=-8.27052466D-07.
 Quartic linear search produced a step of  2.00000.
 Iteration  1 RMS(Cart)=  0.08164966 RMS(Int)=  0.10520813
 Iteration  2 RMS(Cart)=  0.08164966 RMS(Int)=  0.00520813
 Iteration  3 RMS(Cart)=  0.00425242 RMS(Int)=  0.00000000
 Iteration  4 RMS(Cart)=  0.00000000 RMS(Int)=  0.00000000
 Iteration  1 RMS(Cart)=  0.00000000 RMS(Int)=  0.00000000
 Variable       Old X    -DE/DX   Delta X   Delta X   Delta X     New X
                                 (Linear)    (Quad)   (Total)
    R1        2.33359   0.20049   0.41042   0.00000   0.41042   2.74400
    R2        1.21309   8.25149   0.00000   0.00000   0.00000   1.21309
    A1        3.14159   0.00000   0.00000   0.00000   0.00000   3.14159
    A2        3.14159   0.00000   0.00000   0.00000   0.00000   3.14159
         Item               Value     Threshold  Converged?
 Maximum Force            0.200493     0.000450     NO 
 RMS     Force            0.115755     0.000300     NO 
 Maximum Displacement     0.273611     0.001800     NO 
 RMS     Displacement     0.167552     0.001200     NO 
 Predicted change in Energy=-3.034805D-02
 GradGradGradGradGradGradGradGradGradGradGradGradGradGradGradGradGradGrad

                          Input orientation:                          
 ---------------------------------------------------------------------
 Center     Atomic     Atomic              Coordinates (Angstroms)
 Number     Number      Type              X           Y           Z
 ---------------------------------------------------------------------
    1          7             0        0.000000    0.000000   -1.234962
    2          7             0        0.000000    0.000000    0.217101
    3          8             0        0.000000    0.000000    0.859040
 ---------------------------------------------------------------------
                    Distance matrix (angstroms):
                    1          2          3
     1  N    0.000000
     2  N    1.452063   0.000000
     3  O    2.094002   0.641939   0.000000
 Stoichiometry    N2O(3)
 Framework group  C*V[C*(NNO)]
 Deg. of freedom     2
 Full point group                 C*V
 Largest Abelian subgroup         C2V     NOp   4
 Largest concise Abelian subgroup C1      NOp   1
                         Standard orientation:                         
 ---------------------------------------------------------------------
 Center     Atomic     Atomic              Coordinates (Angstroms)
 Number     Number      Type              X           Y           Z
 ---------------------------------------------------------------------
    1          7             0        0.000000    0.000000   -1.223476
    2          7             0        0.000000    0.000000    0.228588
    3          8             0        0.000000    0.000000    0.870527
 ---------------------------------------------------------------------
 Rotational constants (GHZ):      0.0000000     14.9458481     14.9458481
 Standard basis: 6-311G(d,p) (5D, 7F)
 There are    27 symmetry adapted basis functions of A1  symmetry.
 There are     3 symmetry adapted basis functions of A2  symmetry.
 There are    12 symmetry adapted basis functions of B1  symmetry.
 There are    12 symmetry adapted basis functions of B2  symmetry.
 Integral buffers will be    131072 words long.
 Raffenetti 2 integral format.
 Two-electron integral symmetry is turned on.
    54 basis functions,    96 primitive gaussians,    57 cartesian basis functions
    12 alpha electrons       10 beta electrons
       nuclear repulsion energy        78.1720844909 Hartrees.
 NAtoms=    3 NActive=    3 NUniq=    3 SFac= 7.50D-01 NAtFMM=   80 NAOKFM=F Big=F
 One-electron integrals computed using PRISM.
 NBasis=    54 RedAO= T  NBF=    27     3    12    12
 NBsUse=    54 1.00D-06 NBFU=    27     3    12    12
 Initial guess read from the read-write file:
 Initial guess orbital symmetries:
 Alpha Orbitals:
       Occupied  (SG) (SG) (SG) (SG) (SG) (PI) (PI) (SG) (SG) (PI)
                 (PI) (SG)
       Virtual   (PI) (PI) (SG) (PI) (PI) (SG) (PI) (SG) (PI) (SG)
                 (PI) (PI) (SG) (?A) (?A) (?A) (PI) (PI) (?B) (?B)
                 (?B) (SG) (PI) (PI) (DLTA) (DLTA) (SG) (PI) (PI)
                 (SG) (PI) (PI) (PI) (PI) (SG) (PI) (PI) (SG) (SG)
                 (SG) (SG) (SG)
 Beta  Orbitals:
       Occupied  (SG) (SG) (SG) (SG) (PI) (PI) (SG) (SG) (SG) (?A)
       Virtual   (?A) (SG) (?A) (?A) (SG) (PI) (PI) (SG) (SG) (PI)
                 (PI) (SG) (PI) (PI) (SG) (SG) (DLTA) (DLTA) (PI)
                 (PI) (?B) (?B) (?B) (SG) (PI) (PI) (DLTA) (DLTA)
                 (SG) (PI) (PI) (SG) (PI) (PI) (PI) (PI) (SG) (PI)
                 (PI) (SG) (SG) (SG) (SG) (SG)
 <S**2> of initial guess= 2.0032
 Harris functional with IExCor=  402 diagonalized for initial guess.
 ExpMin= 2.01D-01 ExpMax= 8.59D+03 ExpMxC= 1.30D+03 IAcc=1 IRadAn=         1 AccDes= 1.00D-06
 HarFok:  IExCor= 402 AccDes= 1.00D-06 IRadAn=         1 IDoV=1
 ScaDFX=  1.000000  1.000000  1.000000  1.000000
 Requested convergence on RMS density matrix=1.00D-08 within 128 cycles.
 Requested convergence on MAX density matrix=1.00D-06.
 Requested convergence on             energy=1.00D-06.
 No special actions if energy rises.
 Keep R1 and R2 integrals in memory in canonical form, NReq=     4483362.
 Integral accuracy reduced to 1.0D-05 until final iterations.
 Initial convergence to 1.0D-05 achieved.  Increase integral accuracy.
 SCF Done:  E(UB+HF-LYP) =  -182.332332070     A.U. after   20 cycles
             Convg  =    0.1839D-08             -V/T =  1.9475
             S**2   =   2.0045
 Annihilation of the first spin contaminant:
 S**2 before annihilation     2.0045,   after     2.0000
 ***** Axes restored to original set *****
 -------------------------------------------------------------------
 Center     Atomic                   Forces (Hartrees/Bohr)
 Number     Number              X              Y              Z
 -------------------------------------------------------------------
    1          7           0.000000000    0.000000000   -0.246037394
    2          7           0.000000000    0.000000000   -7.994783578
    3          8           0.000000000    0.000000000    8.240820972
 -------------------------------------------------------------------
 Cartesian Forces:  Max     8.240820972 RMS     3.828086687

 GradGradGradGradGradGradGradGradGradGradGradGradGradGradGradGradGradGrad
 Berny optimization.
 Internal  Forces:  Max     8.240820972 RMS     4.122246496
 Search for a local minimum.
 Step number   3 out of a maximum of  20
 All quantities printed in internal units (Hartrees-Bohrs-Radians)
 Update second derivatives using D2CorX and points  2  3
 Trust test= 3.17D+00 RLast= 4.10D-01 DXMaxT set to 6.00D-01
 The second derivative matrix:
                          R1        R2        A1        A2
           R1          -0.11097
           R2           0.02600  17.33391
           A1           0.00000   0.00000   0.25000
           A2           0.00000   0.00000   0.00000   0.25000
     Eigenvalues ---   -0.11097   0.25000   0.250001000.00000
 RFO step:  Lambda=-3.07701505D-01.
 Skip linear search -- no minimum in search direction.
 Maximum step size (   0.600) exceeded in Quadratic search.
    -- Step size scaled by   0.554
 Iteration  1 RMS(Cart)=  0.08164966 RMS(Int)=  0.24641016
 Iteration  2 RMS(Cart)=  0.08164966 RMS(Int)=  0.14641016
 Iteration  3 RMS(Cart)=  0.08164966 RMS(Int)=  0.04641016
 Iteration  4 RMS(Cart)=  0.03789374 RMS(Int)=  0.00000000
 Iteration  5 RMS(Cart)=  0.00000000 RMS(Int)=  0.00000000
 Iteration  1 RMS(Cart)=  0.00000000 RMS(Int)=  0.00000000
 Variable       Old X    -DE/DX   Delta X   Delta X   Delta X     New X
                                 (Linear)    (Quad)   (Total)
    R1        2.74400   0.24604   0.00000   0.69282   0.69282   3.43682
    R2        1.21309   8.24082   0.00000   0.00000   0.00000   1.21309
    A1        3.14159   0.00000   0.00000   0.00000   0.00000   3.14159
    A2        3.14159   0.00000   0.00000   0.00000   0.00000   3.14159
         Item               Value     Threshold  Converged?
 Maximum Force            0.246037     0.000450     NO 
 RMS     Force            0.142050     0.000300     NO 
 Maximum Displacement     0.461880     0.001800     NO 
 RMS     Displacement     0.282843     0.001200     NO 
 Predicted change in Energy=-1.970926D-01
 GradGradGradGradGradGradGradGradGradGradGradGradGradGradGradGradGradGrad

                          Input orientation:                          
 ---------------------------------------------------------------------
 Center     Atomic     Atomic              Coordinates (Angstroms)
 Number     Number      Type              X           Y           Z
 ---------------------------------------------------------------------
    1          7             0        0.000000    0.000000   -1.479379
    2          7             0        0.000000    0.000000    0.339309
    3          8             0        0.000000    0.000000    0.981248
 ---------------------------------------------------------------------
                    Distance matrix (angstroms):
                    1          2          3
     1  N    0.000000
     2  N    1.818688   0.000000
     3  O    2.460627   0.641939   0.000000
 Stoichiometry    N2O(3)
 Framework group  C*V[C*(NNO)]
 Deg. of freedom     2
 Full point group                 C*V
 Largest Abelian subgroup         C2V     NOp   4
 Largest concise Abelian subgroup C1      NOp   1
                         Standard orientation:                         
 ---------------------------------------------------------------------
 Center     Atomic     Atomic              Coordinates (Angstroms)
 Number     Number      Type              X           Y           Z
 ---------------------------------------------------------------------
    1          7             0        0.000000    0.000000   -1.473447
    2          7             0        0.000000    0.000000    0.345241
    3          8             0        0.000000    0.000000    0.987180
 ---------------------------------------------------------------------
 Rotational constants (GHZ):      0.0000000     10.6043291     10.6043291
 Standard basis: 6-311G(d,p) (5D, 7F)
 There are    27 symmetry adapted basis functions of A1  symmetry.
 There are     3 symmetry adapted basis functions of A2  symmetry.
 There are    12 symmetry adapted basis functions of B1  symmetry.
 There are    12 symmetry adapted basis functions of B2  symmetry.
 Integral buffers will be    131072 words long.
 Raffenetti 2 integral format.
 Two-electron integral symmetry is turned on.
    54 basis functions,    96 primitive gaussians,    57 cartesian basis functions
    12 alpha electrons       10 beta electrons
       nuclear repulsion energy        72.4637416592 Hartrees.
 NAtoms=    3 NActive=    3 NUniq=    3 SFac= 7.50D-01 NAtFMM=   80 NAOKFM=F Big=F
 One-electron integrals computed using PRISM.
 NBasis=    54 RedAO= T  NBF=    27     3    12    12
 NBsUse=    54 1.00D-06 NBFU=    27     3    12    12
 Initial guess read from the read-write file:
 Initial guess orbital symmetries:
 Alpha Orbitals:
       Occupied  (SG) (SG) (SG) (SG) (PI) (PI) (SG) (SG) (SG) (PI)
                 (PI) (SG)
       Virtual   (PI) (PI) (SG) (PI) (PI) (SG) (SG) (PI) (PI) (SG)
                 (PI) (PI) (SG) (SG) (DLTA) (DLTA) (PI) (PI) (?A)
                 (?A) (?A) (PI) (PI) (SG) (SG) (DLTA) (DLTA) (PI)
                 (PI) (SG) (PI) (PI) (SG) (PI) (PI) (PI) (PI) (SG)
                 (SG) (SG) (SG) (SG)
 Beta  Orbitals:
       Occupied  (SG) (SG) (SG) (SG) (PI) (PI) (SG) (SG) (SG) (?A)
       Virtual   (?A) (SG) (?A) (?A) (SG) (PI) (PI) (SG) (SG) (PI)
                 (PI) (SG) (PI) (PI) (SG) (SG) (DLTA) (DLTA) (PI)
                 (PI) (?B) (?B) (?B) (PI) (PI) (SG) (DLTA) (DLTA)
                 (SG) (PI) (PI) (SG) (PI) (PI) (SG) (PI) (PI) (PI)
                 (PI) (SG) (SG) (SG) (SG) (SG)
 <S**2> of initial guess= 2.0054
 Harris functional with IExCor=  402 diagonalized for initial guess.
 ExpMin= 2.01D-01 ExpMax= 8.59D+03 ExpMxC= 1.30D+03 IAcc=1 IRadAn=         1 AccDes= 1.00D-06
 HarFok:  IExCor= 402 AccDes= 1.00D-06 IRadAn=         1 IDoV=1
 ScaDFX=  1.000000  1.000000  1.000000  1.000000
 Requested convergence on RMS density matrix=1.00D-08 within 128 cycles.
 Requested convergence on MAX density matrix=1.00D-06.
 Requested convergence on             energy=1.00D-06.
 No special actions if energy rises.
 Keep R1 and R2 integrals in memory in canonical form, NReq=     4483522.
 Integral accuracy reduced to 1.0D-05 until final iterations.
 Initial convergence to 1.0D-05 achieved.  Increase integral accuracy.
 SCF Done:  E(UB+HF-LYP) =  -182.441263811     A.U. after   17 cycles
             Convg  =    0.3098D-08             -V/T =  1.9502
             S**2   =   2.0111
 Annihilation of the first spin contaminant:
 S**2 before annihilation     2.0111,   after     2.0000
 ***** Axes restored to original set *****
 -------------------------------------------------------------------
 Center     Atomic                   Forces (Hartrees/Bohr)
 Number     Number              X              Y              Z
 -------------------------------------------------------------------
    1          7           0.000000000    0.000000000   -0.077146794
    2          7           0.000000000    0.000000000   -8.090785159
    3          8           0.000000000    0.000000000    8.167931953
 -------------------------------------------------------------------
 Cartesian Forces:  Max     8.167931953 RMS     3.832345793

 GradGradGradGradGradGradGradGradGradGradGradGradGradGradGradGradGradGrad
 Berny optimization.
 Internal  Forces:  Max     8.167931953 RMS     4.084148137
 Search for a local minimum.
 Step number   4 out of a maximum of  20
 All quantities printed in internal units (Hartrees-Bohrs-Radians)
 Update second derivatives using D2CorX and points  3  4
 Trust test= 5.53D-01 RLast= 6.93D-01 DXMaxT set to 6.00D-01
 The second derivative matrix:
                          R1        R2        A1        A2
           R1           0.24377
           R2           0.10521  17.38540
           A1           0.00000   0.00000   0.25000
           A2           0.00000   0.00000   0.00000   0.25000
     Eigenvalues ---    0.24377   0.25000   0.250001000.00000
 RFO step:  Lambda=-1.88579634D-06.
 Quartic linear search produced a step of  0.59578.
 Iteration  1 RMS(Cart)=  0.08164966 RMS(Int)=  0.10638395
 Iteration  2 RMS(Cart)=  0.08164966 RMS(Int)=  0.00638395
 Iteration  3 RMS(Cart)=  0.00521247 RMS(Int)=  0.00000000
 Iteration  4 RMS(Cart)=  0.00000000 RMS(Int)=  0.00000000
 Iteration  1 RMS(Cart)=  0.00000000 RMS(Int)=  0.00000000
 Variable       Old X    -DE/DX   Delta X   Delta X   Delta X     New X
                                 (Linear)    (Quad)   (Total)
    R1        3.43682   0.07715   0.41277   0.00000   0.41277   3.84959
    R2        1.21309   8.16793   0.00000   0.00000   0.00000   1.21309
    A1        3.14159   0.00000   0.00000   0.00000   0.00000   3.14159
    A2        3.14159   0.00000   0.00000   0.00000   0.00000   3.14159
         Item               Value     Threshold  Converged?
 Maximum Force            0.077147     0.000450     NO 
 RMS     Force            0.044541     0.000300     NO 
 Maximum Displacement     0.275179     0.001800     NO 
 RMS     Displacement     0.168512     0.001200     NO 
 Predicted change in Energy=-1.107706D-02
 GradGradGradGradGradGradGradGradGradGradGradGradGradGradGradGradGradGrad

                          Input orientation:                          
 ---------------------------------------------------------------------
 Center     Atomic     Atomic              Coordinates (Angstroms)
 Number     Number      Type              X           Y           Z
 ---------------------------------------------------------------------
    1          7             0        0.000000    0.000000   -1.624997
    2          7             0        0.000000    0.000000    0.412118
    3          8             0        0.000000    0.000000    1.054057
 ---------------------------------------------------------------------
                    Distance matrix (angstroms):
                    1          2          3
     1  N    0.000000
     2  N    2.037115   0.000000
     3  O    2.679054   0.641939   0.000000
 Stoichiometry    N2O(3)
 Framework group  C*V[C*(NNO)]
 Deg. of freedom     2
 Full point group                 C*V
 Largest Abelian subgroup         C2V     NOp   4
 Largest concise Abelian subgroup C1      NOp   1
                         Standard orientation:                         
 ---------------------------------------------------------------------
 Center     Atomic     Atomic              Coordinates (Angstroms)
 Number     Number      Type              X           Y           Z
 ---------------------------------------------------------------------
    1          7             0        0.000000    0.000000   -1.622375
    2          7             0        0.000000    0.000000    0.414741
    3          8             0        0.000000    0.000000    1.056680
 ---------------------------------------------------------------------
 Rotational constants (GHZ):      0.0000000      8.8467999      8.8467999
 Standard basis: 6-311G(d,p) (5D, 7F)
 There are    27 symmetry adapted basis functions of A1  symmetry.
 There are     3 symmetry adapted basis functions of A2  symmetry.
 There are    12 symmetry adapted basis functions of B1  symmetry.
 There are    12 symmetry adapted basis functions of B2  symmetry.
 Integral buffers will be    131072 words long.
 Raffenetti 2 integral format.
 Two-electron integral symmetry is turned on.
    54 basis functions,    96 primitive gaussians,    57 cartesian basis functions
    12 alpha electrons       10 beta electrons
       nuclear repulsion energy        69.9531095591 Hartrees.
 NAtoms=    3 NActive=    3 NUniq=    3 SFac= 7.50D-01 NAtFMM=   80 NAOKFM=F Big=F
 One-electron integrals computed using PRISM.
 NBasis=    54 RedAO= T  NBF=    27     3    12    12
 NBsUse=    54 1.00D-06 NBFU=    27     3    12    12
 Initial guess read from the read-write file:
 Initial guess orbital symmetries:
 Alpha Orbitals:
       Occupied  (SG) (SG) (SG) (SG) (PI) (PI) (SG) (SG) (SG) (?A)
                 (?A) (SG)
       Virtual   (?A) (?A) (SG) (PI) (PI) (SG) (SG) (PI) (PI) (SG)
                 (PI) (PI) (SG) (SG) (DLTA) (DLTA) (?B) (PI) (PI)
                 (?B) (?B) (PI) (PI) (SG) (SG) (DLTA) (DLTA) (PI)
                 (PI) (SG) (PI) (PI) (SG) (PI) (PI) (PI) (PI) (SG)
                 (SG) (SG) (SG) (SG)
 Beta  Orbitals:
       Occupied  (SG) (SG) (SG) (SG) (PI) (PI) (SG) (SG) (SG) (?A)
       Virtual   (?A) (SG) (?A) (?A) (SG) (PI) (PI) (SG) (SG) (?A)
                 (?A) (SG) (?A) (?A) (SG) (SG) (DLTA) (DLTA) (SG)
                 (PI) (PI) (DLTA) (DLTA) (PI) (PI) (SG) (SG) (DLTA)
                 (DLTA) (PI) (PI) (SG) (PI) (PI) (SG) (PI) (PI)
                 (PI) (PI) (SG) (SG) (SG) (SG) (SG)
 <S**2> of initial guess= 2.0116
 Harris functional with IExCor=  402 diagonalized for initial guess.
 ExpMin= 2.01D-01 ExpMax= 8.59D+03 ExpMxC= 1.30D+03 IAcc=1 IRadAn=         1 AccDes= 1.00D-06
 HarFok:  IExCor= 402 AccDes= 1.00D-06 IRadAn=         1 IDoV=1
 ScaDFX=  1.000000  1.000000  1.000000  1.000000
 Requested convergence on RMS density matrix=1.00D-08 within 128 cycles.
 Requested convergence on MAX density matrix=1.00D-06.
 Requested convergence on             energy=1.00D-06.
 No special actions if energy rises.
 Keep R1 and R2 integrals in memory in canonical form, NReq=     4483522.
 Integral accuracy reduced to 1.0D-05 until final iterations.
 Initial convergence to 1.0D-05 achieved.  Increase integral accuracy.
 SCF Done:  E(UB+HF-LYP) =  -182.460489874     A.U. after   17 cycles
             Convg  =    0.1829D-08             -V/T =  1.9511
             S**2   =   2.0178
 Annihilation of the first spin contaminant:
 S**2 before annihilation     2.0178,   after     2.0000
 ***** Axes restored to original set *****
 -------------------------------------------------------------------
 Center     Atomic                   Forces (Hartrees/Bohr)
 Number     Number              X              Y              Z
 -------------------------------------------------------------------
    1          7           0.000000000    0.000000000   -0.021602602
    2          7           0.000000000    0.000000000   -8.128085557
    3          8           0.000000000    0.000000000    8.149688159
 -------------------------------------------------------------------
 Cartesian Forces:  Max     8.149688159 RMS     3.836718195

 GradGradGradGradGradGradGradGradGradGradGradGradGradGradGradGradGradGrad
 Berny optimization.
 Internal  Forces:  Max     8.149688159 RMS     4.074858395
 Search for a local minimum.
 Step number   5 out of a maximum of  20
 All quantities printed in internal units (Hartrees-Bohrs-Radians)
 Update second derivatives using D2CorX and points  4  5
 Trust test= 1.74D+00 RLast= 4.13D-01 DXMaxT set to 8.49D-01
 The second derivative matrix:
                          R1        R2        A1        A2
           R1           0.13457
           R2           0.04420  17.35452
           A1           0.00000   0.00000   0.25000
           A2           0.00000   0.00000   0.00000   0.25000
     Eigenvalues ---    0.13457   0.25000   0.250001000.00000
 RFO step:  Lambda=-1.68543692D-07.
 Quartic linear search produced a step of  0.71161.
 Iteration  1 RMS(Cart)=  0.08164966 RMS(Int)=  0.04686455
 Iteration  2 RMS(Cart)=  0.03826475 RMS(Int)=  0.00000000
 Iteration  3 RMS(Cart)=  0.00000000 RMS(Int)=  0.00000000
 Iteration  1 RMS(Cart)=  0.00000000 RMS(Int)=  0.00000000
 Variable       Old X    -DE/DX   Delta X   Delta X   Delta X     New X
                                 (Linear)    (Quad)   (Total)
    R1        3.84959   0.02160   0.29373   0.00000   0.29373   4.14332
    R2        1.21309   8.14969   0.00000   0.00000   0.00000   1.21309
    A1        3.14159   0.00000   0.00000   0.00000   0.00000   3.14159
    A2        3.14159   0.00000   0.00000   0.00000   0.00000   3.14159
         Item               Value     Threshold  Converged?
 Maximum Force            0.021603     0.000450     NO 
 RMS     Force            0.012472     0.000300     NO 
 Maximum Displacement     0.195819     0.001800     NO 
 RMS     Displacement     0.119914     0.001200     NO 
 Predicted change in Energy=-5.403864D-04
 GradGradGradGradGradGradGradGradGradGradGradGradGradGradGradGradGradGrad

                          Input orientation:                          
 ---------------------------------------------------------------------
 Center     Atomic     Atomic              Coordinates (Angstroms)
 Number     Number      Type              X           Y           Z
 ---------------------------------------------------------------------
    1          7             0        0.000000    0.000000   -1.728620
    2          7             0        0.000000    0.000000    0.463930
    3          8             0        0.000000    0.000000    1.105869
 ---------------------------------------------------------------------
                    Distance matrix (angstroms):
                    1          2          3
     1  N    0.000000
     2  N    2.192550   0.000000
     3  O    2.834489   0.641939   0.000000
 Stoichiometry    N2O(3)
 Framework group  C*V[C*(NNO)]
 Deg. of freedom     2
 Full point group                 C*V
 Largest Abelian subgroup         C2V     NOp   4
 Largest concise Abelian subgroup C1      NOp   1
                         Standard orientation:                         
 ---------------------------------------------------------------------
 Center     Atomic     Atomic              Coordinates (Angstroms)
 Number     Number      Type              X           Y           Z
 ---------------------------------------------------------------------
    1          7             0        0.000000    0.000000   -1.728353
    2          7             0        0.000000    0.000000    0.464197
    3          8             0        0.000000    0.000000    1.106136
 ---------------------------------------------------------------------
 Rotational constants (GHZ):      0.0000000      7.8453337      7.8453337
 Standard basis: 6-311G(d,p) (5D, 7F)
 There are    27 symmetry adapted basis functions of A1  symmetry.
 There are     3 symmetry adapted basis functions of A2  symmetry.
 There are    12 symmetry adapted basis functions of B1  symmetry.
 There are    12 symmetry adapted basis functions of B2  symmetry.
 Integral buffers will be    131072 words long.
 Raffenetti 2 integral format.
 Two-electron integral symmetry is turned on.
    54 basis functions,    96 primitive gaussians,    57 cartesian basis functions
    12 alpha electrons       10 beta electrons
       nuclear repulsion energy        68.4441789714 Hartrees.
 NAtoms=    3 NActive=    3 NUniq=    3 SFac= 7.50D-01 NAtFMM=   80 NAOKFM=F Big=F
 One-electron integrals computed using PRISM.
 NBasis=    54 RedAO= T  NBF=    27     3    12    12
 NBsUse=    54 1.00D-06 NBFU=    27     3    12    12
 Initial guess read from the read-write file:
 Initial guess orbital symmetries:
 Alpha Orbitals:
       Occupied  (SG) (SG) (SG) (SG) (PI) (PI) (SG) (SG) (SG) (?A)
                 (SG) (?A)
       Virtual   (?A) (?A) (SG) (PI) (PI) (SG) (SG) (?A) (?A) (SG)
                 (?A) (?A) (SG) (SG) (DLTA) (DLTA) (?B) (?A) (?B)
                 (?B) (?A) (?A) (?A) (?B) (SG) (DLTA) (DLTA) (PI)
                 (PI) (SG) (PI) (SG) (PI) (PI) (PI) (PI) (PI) (SG)
                 (SG) (SG) (SG) (SG)
 Beta  Orbitals:
       Occupied  (SG) (SG) (SG) (SG) (PI) (PI) (SG) (SG) (SG) (?A)
       Virtual   (?A) (SG) (?A) (?A) (SG) (PI) (PI) (SG) (SG) (?A)
                 (?A) (SG) (?A) (?A) (SG) (SG) (DLTA) (DLTA) (SG)
                 (?A) (DLTA) (?A) (DLTA) (?A) (?A) (SG) (SG) (DLTA)
                 (DLTA) (PI) (PI) (SG) (PI) (PI) (SG) (PI) (PI)
                 (PI) (PI) (SG) (SG) (SG) (SG) (SG)
 <S**2> of initial guess= 2.0183
 Harris functional with IExCor=  402 diagonalized for initial guess.
 ExpMin= 2.01D-01 ExpMax= 8.59D+03 ExpMxC= 1.30D+03 IAcc=1 IRadAn=         1 AccDes= 1.00D-06
 HarFok:  IExCor= 402 AccDes= 1.00D-06 IRadAn=         1 IDoV=1
 ScaDFX=  1.000000  1.000000  1.000000  1.000000
 Requested convergence on RMS density matrix=1.00D-08 within 128 cycles.
 Requested convergence on MAX density matrix=1.00D-06.
 Requested convergence on             energy=1.00D-06.
 No special actions if energy rises.
 Keep R1 and R2 integrals in memory in canonical form, NReq=     4483814.
 Integral accuracy reduced to 1.0D-05 until final iterations.
 Initial convergence to 1.0D-05 achieved.  Increase integral accuracy.
 SCF Done:  E(UB+HF-LYP) =  -182.463285856     A.U. after   17 cycles
             Convg  =    0.1743D-08             -V/T =  1.9515
             S**2   =   2.0262
 Annihilation of the first spin contaminant:
 S**2 before annihilation     2.0262,   after     2.0001
 ***** Axes restored to original set *****
 -------------------------------------------------------------------
 Center     Atomic                   Forces (Hartrees/Bohr)
 Number     Number              X              Y              Z
 -------------------------------------------------------------------
    1          7           0.000000000    0.000000000    0.000609373
    2          7           0.000000000    0.000000000   -8.144506767
    3          8           0.000000000    0.000000000    8.143897394
 -------------------------------------------------------------------
 Cartesian Forces:  Max     8.144506767 RMS     3.839213687

 GradGradGradGradGradGradGradGradGradGradGradGradGradGradGradGradGradGrad
 Berny optimization.
 Internal  Forces:  Max     8.143897394 RMS     4.071948708
 Search for a local minimum.
 Step number   6 out of a maximum of  20
 All quantities printed in internal units (Hartrees-Bohrs-Radians)
 Update second derivatives using D2CorX and points  5  6
 Trust test= 5.17D+00 RLast= 2.94D-01 DXMaxT set to 8.81D-01
 The second derivative matrix:
                          R1        R2        A1        A2
           R1           0.07562
           R2           0.01971  17.34514
           A1           0.00000   0.00000   0.25000
           A2           0.00000   0.00000   0.00000   0.25000
     Eigenvalues ---    0.07562   0.25000   0.250001000.00000
 RFO step:  Lambda= 0.00000000D+00.
 Quartic linear search produced a step of -0.03629.
 Iteration  1 RMS(Cart)=  0.00435194 RMS(Int)=  0.00000000
 Iteration  2 RMS(Cart)=  0.00000000 RMS(Int)=  0.00000000
 Iteration  1 RMS(Cart)=  0.00000000 RMS(Int)=  0.00000000
 Variable       Old X    -DE/DX   Delta X   Delta X   Delta X     New X
                                 (Linear)    (Quad)   (Total)
    R1        4.14332  -0.00061  -0.01066   0.00000  -0.01066   4.13266
    R2        1.21309   8.14390   0.00000   0.00000   0.00000   1.21309
    A1        3.14159   0.00000   0.00000   0.00000   0.00000   3.14159
    A2        3.14159   0.00000   0.00000   0.00000   0.00000   3.14159
         Item               Value     Threshold  Converged?
 Maximum Force            0.000609     0.000450     NO 
 RMS     Force            0.000352     0.000300     NO 
 Maximum Displacement     0.007107     0.001800     NO 
 RMS     Displacement     0.004352     0.001200     NO 
 Predicted change in Energy=-2.199312D-06
 GradGradGradGradGradGradGradGradGradGradGradGradGradGradGradGradGradGrad

                          Input orientation:                          
 ---------------------------------------------------------------------
 Center     Atomic     Atomic              Coordinates (Angstroms)
 Number     Number      Type              X           Y           Z
 ---------------------------------------------------------------------
    1          7             0        0.000000    0.000000   -1.724859
    2          7             0        0.000000    0.000000    0.462050
    3          8             0        0.000000    0.000000    1.103989
 ---------------------------------------------------------------------
                    Distance matrix (angstroms):
                    1          2          3
     1  N    0.000000
     2  N    2.186909   0.000000
     3  O    2.828848   0.641939   0.000000
 Stoichiometry    N2O(3)
 Framework group  C*V[C*(NNO)]
 Deg. of freedom     2
 Full point group                 C*V
 Largest Abelian subgroup         C2V     NOp   4
 Largest concise Abelian subgroup C1      NOp   1
                         Standard orientation:                         
 ---------------------------------------------------------------------
 Center     Atomic     Atomic              Coordinates (Angstroms)
 Number     Number      Type              X           Y           Z
 ---------------------------------------------------------------------
    1          7             0        0.000000    0.000000   -1.724507
    2          7             0        0.000000    0.000000    0.462402
    3          8             0        0.000000    0.000000    1.104341
 ---------------------------------------------------------------------
 Rotational constants (GHZ):      0.0000000      7.8786883      7.8786883
 Standard basis: 6-311G(d,p) (5D, 7F)
 There are    27 symmetry adapted basis functions of A1  symmetry.
 There are     3 symmetry adapted basis functions of A2  symmetry.
 There are    12 symmetry adapted basis functions of B1  symmetry.
 There are    12 symmetry adapted basis functions of B2  symmetry.
 Integral buffers will be    131072 words long.
 Raffenetti 2 integral format.
 Two-electron integral symmetry is turned on.
    54 basis functions,    96 primitive gaussians,    57 cartesian basis functions
    12 alpha electrons       10 beta electrons
       nuclear repulsion energy        68.4955323653 Hartrees.
 NAtoms=    3 NActive=    3 NUniq=    3 SFac= 7.50D-01 NAtFMM=   80 NAOKFM=F Big=F
 One-electron integrals computed using PRISM.
 NBasis=    54 RedAO= T  NBF=    27     3    12    12
 NBsUse=    54 1.00D-06 NBFU=    27     3    12    12
 Initial guess read from the read-write file:
 Initial guess orbital symmetries:
 Alpha Orbitals:
       Occupied  (SG) (SG) (SG) (SG) (PI) (PI) (SG) (SG) (SG) (?A)
                 (SG) (?A)
       Virtual   (?A) (?A) (SG) (PI) (PI) (SG) (SG) (?A) (?A) (SG)
                 (?A) (?A) (SG) (SG) (DLTA) (DLTA) (SG) (PI) (?B)
                 (?B) (PI) (PI) (PI) (?B) (SG) (DLTA) (DLTA) (PI)
                 (PI) (SG) (PI) (PI) (SG) (PI) (PI) (PI) (PI) (SG)
                 (SG) (SG) (SG) (SG)
 Beta  Orbitals:
       Occupied  (SG) (SG) (SG) (SG) (PI) (PI) (SG) (SG) (SG) (?A)
       Virtual   (?A) (SG) (?A) (?A) (SG) (PI) (PI) (SG) (SG) (?A)
                 (?A) (SG) (?A) (?A) (SG) (SG) (DLTA) (DLTA) (SG)
                 (?B) (?B) (?A) (?A) (?A) (?A) (?B) (SG) (DLTA)
                 (DLTA) (PI) (PI) (SG) (PI) (PI) (SG) (PI) (PI)
                 (PI) (PI) (SG) (SG) (SG) (SG) (SG)
 <S**2> of initial guess= 2.0262
 Requested convergence on RMS density matrix=1.00D-08 within 128 cycles.
 Requested convergence on MAX density matrix=1.00D-06.
 Requested convergence on             energy=1.00D-06.
 No special actions if energy rises.
 Keep R1 and R2 integrals in memory in canonical form, NReq=     4483814.
 SCF Done:  E(UB+HF-LYP) =  -182.463289098     A.U. after   10 cycles
             Convg  =    0.5978D-08             -V/T =  1.9515
             S**2   =   2.0258
 Annihilation of the first spin contaminant:
 S**2 before annihilation     2.0258,   after     2.0001
 ***** Axes restored to original set *****
 -------------------------------------------------------------------
 Center     Atomic                   Forces (Hartrees/Bohr)
 Number     Number              X              Y              Z
 -------------------------------------------------------------------
    1          7           0.000000000    0.000000000   -0.000003206
    2          7           0.000000000    0.000000000   -8.144014222
    3          8           0.000000000    0.000000000    8.144017427
 -------------------------------------------------------------------
 Cartesian Forces:  Max     8.144017427 RMS     3.839125877

 GradGradGradGradGradGradGradGradGradGradGradGradGradGradGradGradGradGrad
 Berny optimization.
 Internal  Forces:  Max     8.144017427 RMS     4.072008714
 Search for a local minimum.
 Step number   7 out of a maximum of  20
 All quantities printed in internal units (Hartrees-Bohrs-Radians)
 Update second derivatives using D2CorX and points  5  6  7
 Trust test= 1.47D+00 RLast= 1.07D-02 DXMaxT set to 8.81D-01
 The second derivative matrix:
                          R1        R2        A1        A2
           R1           0.05746
           R2           0.01126  17.34221
           A1           0.00000   0.00000   0.25000
           A2           0.00000   0.00000   0.00000   0.25000
     Eigenvalues ---    0.05746   0.25000   0.250001000.00000
 RFO step:  Lambda= 0.00000000D+00.
 Quartic linear search produced a step of -0.00518.
 Iteration  1 RMS(Cart)=  0.00002254 RMS(Int)=  0.00000000
 Iteration  2 RMS(Cart)=  0.00000000 RMS(Int)=  0.00000000
 Iteration  1 RMS(Cart)=  0.00000000 RMS(Int)=  0.00000000
 Variable       Old X    -DE/DX   Delta X   Delta X   Delta X     New X
                                 (Linear)    (Quad)   (Total)
    R1        4.13266   0.00000   0.00006   0.00000   0.00006   4.13271
    R2        1.21309   8.14402   0.00000   0.00000   0.00000   1.21309
    A1        3.14159   0.00000   0.00000   0.00000   0.00000   3.14159
    A2        3.14159   0.00000   0.00000   0.00000   0.00000   3.14159
         Item               Value     Threshold  Converged?
 Maximum Force            0.000003     0.000450     YES
 RMS     Force            0.000002     0.000300     YES
 Maximum Displacement     0.000037     0.001800     YES
 RMS     Displacement     0.000023     0.001200     YES
 Predicted change in Energy=-8.940312D-11
 Optimization completed.
    -- Stationary point found.
                           ----------------------------
                           !   Optimized Parameters   !
                           ! (Angstroms and Degrees)  !
 --------------------------                            --------------------------
 ! Name  Definition              Value          Derivative Info.                !
 --------------------------------------------------------------------------------
 ! R1    R(1,2)                  2.1869         -DE/DX =    0.0                 !
 ! R2    R(2,3)                  0.6419         -DE/DX =    8.144               !
 ! A1    L(1,2,3,-1,-1)        180.0            -DE/DX =    0.0                 !
 ! A2    L(1,2,3,-2,-2)        180.0            -DE/DX =    0.0                 !
 --------------------------------------------------------------------------------
 GradGradGradGradGradGradGradGradGradGradGradGradGradGradGradGradGradGrad

                          Input orientation:                          
 ---------------------------------------------------------------------
 Center     Atomic     Atomic              Coordinates (Angstroms)
 Number     Number      Type              X           Y           Z
 ---------------------------------------------------------------------
    1          7             0        0.000000    0.000000   -1.724859
    2          7             0        0.000000    0.000000    0.462050
    3          8             0        0.000000    0.000000    1.103989
 ---------------------------------------------------------------------
                    Distance matrix (angstroms):
                    1          2          3
     1  N    0.000000
     2  N    2.186909   0.000000
     3  O    2.828848   0.641939   0.000000
 Stoichiometry    N2O(3)
 Framework group  C*V[C*(NNO)]
 Deg. of freedom     2
 Full point group                 C*V
 Largest Abelian subgroup         C2V     NOp   4
 Largest concise Abelian subgroup C1      NOp   1
                         Standard orientation:                         
 ---------------------------------------------------------------------
 Center     Atomic     Atomic              Coordinates (Angstroms)
 Number     Number      Type              X           Y           Z
 ---------------------------------------------------------------------
    1          7             0        0.000000    0.000000   -1.724507
    2          7             0        0.000000    0.000000    0.462402
    3          8             0        0.000000    0.000000    1.104341
 ---------------------------------------------------------------------
 Rotational constants (GHZ):      0.0000000      7.8786883      7.8786883

 **********************************************************************

            Population analysis using the SCF density.

 **********************************************************************

 Orbital symmetries:
 Alpha Orbitals:
       Occupied  (SG) (SG) (SG) (SG) (PI) (PI) (SG) (SG) (SG) (?A)
                 (SG) (?A)
       Virtual   (?A) (?A) (SG) (PI) (PI) (SG) (SG) (?A) (?A) (SG)
                 (?A) (?A) (SG) (SG) (DLTA) (DLTA) (SG) (PI) (?B)
                 (?B) (PI) (PI) (PI) (?B) (SG) (DLTA) (DLTA) (PI)
                 (PI) (SG) (PI) (PI) (SG) (PI) (PI) (PI) (PI) (SG)
                 (SG) (SG) (SG) (SG)
 Beta  Orbitals:
       Occupied  (SG) (SG) (SG) (SG) (PI) (PI) (SG) (SG) (SG) (?A)
       Virtual   (?A) (SG) (?A) (?A) (SG) (PI) (PI) (SG) (SG) (?A)
                 (?A) (SG) (?A) (?A) (SG) (SG) (DLTA) (DLTA) (SG)
                 (?B) (?B) (?A) (?A) (?A) (?A) (?B) (SG) (DLTA)
                 (DLTA) (PI) (PI) (SG) (PI) (PI) (SG) (PI) (PI)
                 (PI) (PI) (SG) (SG) (SG) (SG) (SG)
 Unable to determine electronic state:  an orbital has unidentified symmetry.
 Alpha  occ. eigenvalues --  -19.52031 -14.64431 -14.16832  -1.79734  -1.08492
 Alpha  occ. eigenvalues --   -1.08050  -0.84719  -0.64555  -0.54272  -0.14944
 Alpha  occ. eigenvalues --   -0.13353  -0.10168
 Alpha virt. eigenvalues --    0.08585   0.09375   0.17950   0.31535   0.32028
 Alpha virt. eigenvalues --    0.52027   0.64001   0.68743   0.71511   0.73038
 Alpha virt. eigenvalues --    0.84889   0.85986   1.02263   1.34500   1.49946
 Alpha virt. eigenvalues --    1.49947   1.93527   2.08916   2.11104   2.11267
 Alpha virt. eigenvalues --    2.12814   2.22698   2.23305   2.30376   2.70095
 Alpha virt. eigenvalues --    2.91372   2.91373   3.11503   3.12008   3.43765
 Alpha virt. eigenvalues --    3.76021   3.80354   3.80770   4.08872   4.09273
 Alpha virt. eigenvalues --    5.02036   5.02478   5.26815   6.39752  35.29299
 Alpha virt. eigenvalues --   36.18599  51.36530
  Beta  occ. eigenvalues --  -19.52060 -14.64339 -14.13030  -1.79710  -1.08358
  Beta  occ. eigenvalues --   -1.08337  -0.84813  -0.62355  -0.43097  -0.05684
  Beta virt. eigenvalues --    0.03624   0.08620   0.09262   0.11476   0.17947
  Beta virt. eigenvalues --    0.31828   0.31925   0.52291   0.66779   0.73647
  Beta virt. eigenvalues --    0.75438   0.81645   0.86574   0.87433   1.07511
  Beta virt. eigenvalues --    1.35271   1.49942   1.49945   1.94138   2.19258
  Beta virt. eigenvalues --    2.19939   2.20401   2.21631   2.23513   2.24202
  Beta virt. eigenvalues --    2.40461   2.70499   2.91216   2.91219   3.11733
  Beta virt. eigenvalues --    3.11951   3.43806   3.84391   3.86443   3.91693
  Beta virt. eigenvalues --    4.08951   4.08976   5.02108   5.02195   5.26843
  Beta virt. eigenvalues --    6.39867  35.33291  36.18692  51.36505
          Condensed to atoms (all electrons):
              1          2          3
     1  N    7.687790   0.023678  -0.003433
     2  N    0.023678   6.368290   0.030461
     3  O   -0.003433   0.030461   7.842505
 Mulliken atomic charges:
              1
     1  N   -0.708036
     2  N    0.577570
     3  O    0.130466
 Sum of Mulliken charges=   0.00000
 Atomic charges with hydrogens summed into heavy atoms:
              1
     1  N   -0.708036
     2  N    0.577570
     3  O    0.130466
 Sum of Mulliken charges=   0.00000
          Atomic-Atomic Spin Densities.
              1          2          3
     1  N    2.077276  -0.052014   0.009755
     2  N   -0.052014   0.007298   0.026208
     3  O    0.009755   0.026208  -0.052473
 Mulliken atomic spin densities:
              1
     1  N    2.035017
     2  N   -0.018508
     3  O   -0.016509
 Sum of Mulliken spin densities=   2.00000
 Electronic spatial extent (au):  <R**2>=   152.8408
 Charge=     0.0000 electrons
 Dipole moment (field-independent basis, Debye):
    X=     0.0000    Y=     0.0000    Z=     9.4237  Tot=     9.4237
 Quadrupole moment (field-independent basis, Debye-Ang):
   XX=   -15.7793   YY=   -13.8009   ZZ=   -21.9536
   XY=     0.0000   XZ=     0.0000   YZ=     0.0000
 Traceless Quadrupole moment (field-independent basis, Debye-Ang):
   XX=     1.3986   YY=     3.3770   ZZ=    -4.7757
   XY=     0.0000   XZ=     0.0000   YZ=     0.0000
 Octapole moment (field-independent basis, Debye-Ang**2):
  XXX=     0.0000  YYY=     0.0000  ZZZ=    34.9492  XYY=     0.0000
  XXY=     0.0000  XXZ=     8.9227  XZZ=     0.0000  YZZ=     0.0000
  YYZ=     6.3680  XYZ=     0.0000
 Hexadecapole moment (field-independent basis, Debye-Ang**3):
 XXXX=   -13.8997 YYYY=   -10.4169 ZZZZ=  -190.3847 XXXY=     0.0000
 XXXZ=     0.0000 YYYX=     0.0000 YYYZ=     0.0000 ZZZX=     0.0000
 ZZZY=     0.0000 XXYY=    -4.0527 XXZZ=   -33.0887 YYZZ=   -28.1593
 XXYZ=     0.0000 YYXZ=     0.0000 ZZXY=     0.0000
 N-N= 6.849553236525D+01 E-N=-5.713356559626D+02  KE= 1.917663189515D+02
 Symmetry A1   KE= 1.753488283311D+02
 Symmetry A2   KE= 2.184944967572D-35
 Symmetry B1   KE= 8.918105469478D+00
 Symmetry B2   KE= 7.499385150878D+00
                          Isotropic Fermi Contact Couplings
        Atom                 a.u.       MegaHertz       Gauss      10(-4) cm-1
     1  N(14)              0.04018       6.49159       2.31636       2.16536
     2  N(14)              0.08285      13.38448       4.77591       4.46458
     3  O(17)              0.04685     -14.19978      -5.06683      -4.73654
 --------------------------------------------------------
       Center         ----  Spin Dipole Couplings  ----
                      3XX-RR        3YY-RR        3ZZ-RR
 --------------------------------------------------------
     1   Atom       -1.905295      0.777465      1.127830
     2   Atom       -0.130570     -0.021670      0.152240
     3   Atom       -0.175346      0.082298      0.093049
 --------------------------------------------------------
                        XY            XZ            YZ
 --------------------------------------------------------
     1   Atom        0.000000      0.000000      0.000000
     2   Atom        0.000000      0.000000      0.000000
     3   Atom        0.000000      0.000000      0.000000
 --------------------------------------------------------


 ---------------------------------------------------------------------------------
              Anisotropic Spin Dipole Couplings in Principal Axis System
 ---------------------------------------------------------------------------------

       Atom             a.u.   MegaHertz   Gauss  10(-4) cm-1        Axes

              Baa    -1.9053   -73.483   -26.221   -24.511  1.0000  0.0000  0.0000
     1 N(14)  Bbb     0.7775    29.985    10.699    10.002  0.0000  1.0000  0.0000
              Bcc     1.1278    43.498    15.521    14.509  0.0000  0.0000  1.0000
 
              Baa    -0.1306    -5.036    -1.797    -1.680  1.0000  0.0000  0.0000
     2 N(14)  Bbb    -0.0217    -0.836    -0.298    -0.279  0.0000  1.0000  0.0000
              Bcc     0.1522     5.872     2.095     1.959  0.0000  0.0000  1.0000
 
              Baa    -0.1753    12.688     4.527     4.232  1.0000  0.0000  0.0000
     3 O(17)  Bbb     0.0823    -5.955    -2.125    -1.986  0.0000  1.0000  0.0000
              Bcc     0.0930    -6.733    -2.402    -2.246  0.0000  0.0000  1.0000
 

 ---------------------------------------------------------------------------------

 1\1\GINC-COMPUTE-2-12\FOpt\UB3LYP\6-311G(d,p)\N2O1(3)\CHENGTAO\26-May-
 2013\0\\# opt=modredundant b3lyp/6-311g(d,p) geom=connectivity\\Title 
 Card Required\\0,3\N,0.,0.,-1.724859456\N,0.,0.,0.462049728\O,0.,0.,1.
 103988728\\Version=EM64T-G03RevD.02\HF=-182.4632891\S2=2.025785\S2-1=0
 .\S2A=2.000065\RMSD=5.978e-09\RMSF=3.839e+00\Thermal=0.\Dipole=0.,0.,3
 .7075685\PG=C*V [C*(N1N1O1)]\\@


 THE ONLY DIFFERENCE BETWEEN ECCENTRICS AND JOGGERS
 IS THAT JOGGERS WEAR SWEATBANDS WHEN THEY RUN IN THE RAIN.
 Job cpu time:  0 days  0 hours  0 minutes 16.9 seconds.
 File lengths (MBytes):  RWF=     17 Int=      0 D2E=      0 Chk=      6 Scr=      1
 Normal termination of Gaussian 03 at Sun May 26 08:43:55 2013.
