Created by /ul/tpascal/scripts/createLammpsInput.pl on Mon Oct  7 00:20:39 2013

          10 atoms
           8 bonds
          12 angles
          12 dihedrals
           3 impropers

           7 atom types
           6 bond types
           9 angle types
           6 dihedral types
           1 improper types

		  -3.557345   6.793417 xlo xhi
		  -2.705567   5.559134 ylo yhi
		  -2.155567   4.311134 zlo zhi

Masses

    1   1.0080 # H_     
    2   1.0080 # H_HB   
    3  12.0110 # C_3    
    4  12.0110 # C_2    
    5  14.0067 # N_3    
    6  15.9994 # O_3    
    7  15.9994 # O_2    

Pair Coeffs

    1      0.04400000      2.57113363 
    2      0.04400000      2.57113363 
    3      0.10500000      3.43085103 
    4      0.10500000      3.43085103 
    5      0.06900000      3.26068938 
    6      0.06000000      3.11814551 
    7      0.06000000      3.11814551                 

Bond Coeffs

    1         328.222          1.1126 # C_3 H_ 
    2         515.843         1.46293 # C_3 N_3 
    3         367.712           1.489 # C_2 C_3 
    4         547.904         1.38643 # C_2 O_2 
    5         520.061         1.41074 # C_2 O_3 
    6         499.883         1.06358 # N_3 H_                                 

Dihedral Coeffs

    1       0.0813749               1               3 # H_ C_3 N_3 H_ 
    2       0.0813749               1               3 # C_2 C_3 N_3 H_ 
    3        0.166667              -1               3 # O_2 C_2 C_3 H_ 
    4        0.166667              -1               3 # O_2 C_2 C_3 N_3 
    5        0.166667              -1               3 # O_3 C_2 C_3 H_ 
    6        0.166667              -1               3 # N_3 C_3 C_2 O_3                 

Improper Coeffs

    1               4               0 # C_2 C_3 O_2 O_3

Atoms

       1      444        6    -0.47973    0.57500    1.25600    0.00000    0    0    0
       2      444        7    -0.24958    1.67700   -0.70400   -0.00000    0    0    0
       3      444        3     0.09179   -0.74300   -0.75600    0.00000    0    0    0
       4      444        1     0.05372   -0.76100   -1.41900    0.87000    0    0    0
       5      444        1     0.05372   -0.76100   -1.42000   -0.87000    0    0    0
       6      444        4     0.31853    0.63600   -0.09900   -0.00000    0    0    0
       7      444        2     0.29509    1.49200    1.56800    0.00000    0    0    0
       8      444        5    -0.32095   -1.92700    0.08500   -0.00000    0    0    0
       9      444        1     0.11870   -1.92500    0.69500    0.81100    0    0    0
      10      444        1     0.11870   -1.92500    0.69500   -0.81100    0    0    0


Bonds

       1        5        1        6 
       2        4        2        6 
       3        1        3        5 
       4        3        3        6 
       5        2        3        8 
       6        1        3        4 
       7        6        8       10 
       8        6        8        9 

Angles

       1        6        2        6        1 
       2        1        3        6        1 
       3        5        3        6        2 
       4        2        3        8       10 
       5        7        5        3        4 
       6        3        6        3        5 
       7        3        6        3        4 
       8        9        8        3        5 
       9        4        8        3        6 
      10        9        8        3        4 
      11        8        9        8       10 
      12        2        9        8        3 

Dihedrals

       1        5        4        3        6        1 
       2        3        4        3        6        2 
       3        1        4        3        8       10 
       4        5        5        3        6        1 
       5        3        5        3        6        2 
       6        1        5        3        8       10 
       7        2        6        3        8       10 
       8        6        8        3        6        1 
       9        4        8        3        6        2 
      10        1        9        8        3        5 
      11        2        9        8        3        6 
      12        1        9        8        3        4 

Impropers

       1        1        6        3        2        1 
       2        1        6        1        3        2 
       3        1        6        2        1        3 
