LAMMPS (30 Aug 2012)
#Lammps 2009 input file generate by DFF

variable                setRunstep      equal   5000000

units          real
atom_style     charge
boundary       p p p

#read_restart       add.rst

pair_style      reax/c NULL 

#----Neighbor Section----#
neighbor                1.0 bin
neigh_modify    delay 0 every 10 check no

read_data      data_lammps
  triclinic box = (0 0 0) to (22.951 19.7227 22.398) with tilt (-11.4755 0 0)
  2 by 2 by 2 MPI processor grid
  1024 atoms
pair_coeff      * * ffield 6 4 2 3 7

fix             QEQ all qeq/reax 1 0.0 10.0 1.0e-6 reax/c

timestep       0.2
fix            1 all npt temp 298.15 298.15 25.0 aniso 1.0 1.0 100
velocity       all create 298.15 1166140691 mom yes rot yes dist gaussian

#compute        myRDF all rdf 100 5 5 5 1 1 2 1 1
#fix            2 all ave/time 100 1 100 c_myRDF file sim.rdf mode vector


dump			1 all custom 1000 dump.lmp id type xu yu zu vx vy vz
dump_modify		1 sort id
dump			2 all cfg ${setRunstep} dump.*.cfg id type xs ys zs vx vy vz fx fy fz
dump			2 all cfg 5000000 dump.*.cfg id type xs ys zs vx vy vz fx fy fz
dump_modify		2 element Al Ca H O S

compute         atomPE all pe/atom
compute         atomKE all ke/atom
variable        atomEng atom c_atomPE+c_atomKE
dump            3 all custom 1000 inp.2pt.atom.eng id v_atomEng
dump_modify     3 sort id


thermo         1000
thermo_style    custom step etotal ke pe temp press lx ly lz vol
thermo_modify   line multi

run            ${setRunstep}
run            5000000
Memory usage per processor = 7.48076 Mbytes
---------------- Step        0 ----- CPU =      0.0000 (sec) ----------------
Step     =              0 TotEng   =   -101715.0185 KinEng   =       909.1693 
PotEng   =   -102624.1877 Temp     =       298.1500 Press    =    -25296.8656 
Lx       =        22.9510 Ly       =        19.7227 Lz       =        22.3980 
Volume   =     10138.5821 
---------------- Step     1000 ----- CPU =    194.1619 (sec) ----------------
Step     =           1000 TotEng   =   -102800.1481 KinEng   =       897.4715 
PotEng   =   -103697.6196 Temp     =       294.3139 Press    =      1322.9617 
Lx       =        22.7240 Ly       =        19.6343 Lz       =        22.2009 
Volume   =      9905.3437 
---------------- Step     2000 ----- CPU =    388.7009 (sec) ----------------
Step     =           2000 TotEng   =   -102779.5379 KinEng   =       897.5358 
PotEng   =   -103677.0737 Temp     =       294.3350 Press    =      1543.8869 
Lx       =        22.7092 Ly       =        19.6021 Lz       =        22.2457 
Volume   =      9902.6342 
---------------- Step     3000 ----- CPU =    581.5798 (sec) ----------------
Step     =           3000 TotEng   =   -102804.8181 KinEng   =       899.3506 
PotEng   =   -103704.1687 Temp     =       294.9301 Press    =      1271.7531 
Lx       =        22.6158 Ly       =        19.8127 Lz       =        22.2107 
Volume   =      9952.1710 
---------------- Step     4000 ----- CPU =    774.6914 (sec) ----------------
Step     =           4000 TotEng   =   -102742.8005 KinEng   =       886.9061 
PotEng   =   -103629.7065 Temp     =       290.8491 Press    =       408.0544 
Lx       =        22.5761 Ly       =        19.8409 Lz       =        22.1385 
Volume   =      9916.5341 
---------------- Step     5000 ----- CPU =    967.4773 (sec) ----------------
Step     =           5000 TotEng   =   -102783.8566 KinEng   =       908.4815 
PotEng   =   -103692.3382 Temp     =       297.9245 Press    =     -2053.3220 
Lx       =        22.6096 Ly       =        19.7893 Lz       =        22.2085 
Volume   =      9936.7479 
---------------- Step     6000 ----- CPU =   1159.6093 (sec) ----------------
Step     =           6000 TotEng   =   -102780.4439 KinEng   =       899.7792 
PotEng   =   -103680.2232 Temp     =       295.0707 Press    =      2609.1021 
Lx       =        22.6073 Ly       =        19.7648 Lz       =        22.2027 
Volume   =      9920.7977 
---------------- Step     7000 ----- CPU =   1352.1205 (sec) ----------------
Step     =           7000 TotEng   =   -102733.2598 KinEng   =       932.1377 
PotEng   =   -103665.3976 Temp     =       305.6822 Press    =      2355.3647 
Lx       =        22.6972 Ly       =        19.6044 Lz       =        22.2325 
Volume   =      9892.7029 
---------------- Step     8000 ----- CPU =   1545.7597 (sec) ----------------
Step     =           8000 TotEng   =   -102820.0588 KinEng   =       847.7987 
PotEng   =   -103667.8575 Temp     =       278.0243 Press    =     -1623.7519 
Lx       =        22.5692 Ly       =        19.8020 Lz       =        22.2251 
Volume   =      9932.7636 
---------------- Step     9000 ----- CPU =   1738.8605 (sec) ----------------
Step     =           9000 TotEng   =   -102763.7574 KinEng   =       906.3545 
PotEng   =   -103670.1119 Temp     =       297.2269 Press    =     -1826.1900 
Lx       =        22.7231 Ly       =        19.7514 Lz       =        22.1489 
Volume   =      9940.7620 
---------------- Step    10000 ----- CPU =   1931.8143 (sec) ----------------
Step     =          10000 TotEng   =   -102721.6428 KinEng   =       948.1490 
PotEng   =   -103669.7919 Temp     =       310.9329 Press    =      9173.3618 
Lx       =        22.7297 Ly       =        19.5347 Lz       =        22.1443 
Volume   =      9832.4416 
---------------- Step    11000 ----- CPU =   2125.9768 (sec) ----------------
Step     =          11000 TotEng   =   -102761.6494 KinEng   =       914.3599 
PotEng   =   -103676.0093 Temp     =       299.8522 Press    =      -286.1805 
Lx       =        22.8027 Ly       =        19.7383 Lz       =        22.1563 
Volume   =      9972.2375 
---------------- Step    12000 ----- CPU =   2319.3954 (sec) ----------------
Step     =          12000 TotEng   =   -102786.2203 KinEng   =       923.3920 
PotEng   =   -103709.6123 Temp     =       302.8141 Press    =      1682.2338 
Lx       =        22.8392 Ly       =        19.5633 Lz       =        22.2307 
Volume   =      9932.8808 
---------------- Step    13000 ----- CPU =   2513.0823 (sec) ----------------
Step     =          13000 TotEng   =   -102841.6543 KinEng   =       879.8470 
PotEng   =   -103721.5013 Temp     =       288.5342 Press    =     -4749.2643 
Lx       =        22.5794 Ly       =        19.6627 Lz       =        22.2423 
Volume   =      9874.9800 
---------------- Step    14000 ----- CPU =   2706.3063 (sec) ----------------
Step     =          14000 TotEng   =   -102799.3905 KinEng   =       886.8591 
PotEng   =   -103686.2496 Temp     =       290.8337 Press    =       907.2666 
Lx       =        22.7556 Ly       =        19.7402 Lz       =        22.0869 
Volume   =      9921.4403 
---------------- Step    15000 ----- CPU =   2899.3755 (sec) ----------------
Step     =          15000 TotEng   =   -102743.5852 KinEng   =       950.5917 
PotEng   =   -103694.1769 Temp     =       311.7339 Press    =      3326.1992 
Lx       =        22.7879 Ly       =        19.5612 Lz       =        22.3003 
Volume   =      9940.5868 
---------------- Step    16000 ----- CPU =   3091.2452 (sec) ----------------
Step     =          16000 TotEng   =   -102761.6771 KinEng   =       923.0574 
PotEng   =   -103684.7346 Temp     =       302.7044 Press    =     -7689.9638 
Lx       =        22.7969 Ly       =        19.6773 Lz       =        22.2661 
Volume   =      9988.1371 
---------------- Step    17000 ----- CPU =   3284.2647 (sec) ----------------
Step     =          17000 TotEng   =   -102810.3052 KinEng   =       904.5478 
PotEng   =   -103714.8530 Temp     =       296.6344 Press    =      1699.5156 
Lx       =        22.5557 Ly       =        19.7807 Lz       =        22.2148 
Volume   =      9911.5544 
---------------- Step    18000 ----- CPU =   3476.9482 (sec) ----------------
Step     =          18000 TotEng   =   -102750.7732 KinEng   =       945.4747 
PotEng   =   -103696.2479 Temp     =       310.0559 Press    =      2155.7298 
Lx       =        22.6915 Ly       =        19.7096 Lz       =        22.2633 
Volume   =      9957.0327 
---------------- Step    19000 ----- CPU =   3669.8870 (sec) ----------------
Step     =          19000 TotEng   =   -102801.8173 KinEng   =       917.1895 
PotEng   =   -103719.0068 Temp     =       300.7801 Press    =       311.3101 
Lx       =        22.6504 Ly       =        19.7674 Lz       =        22.1672 
Volume   =      9925.1408 
---------------- Step    20000 ----- CPU =   3862.6672 (sec) ----------------
Step     =          20000 TotEng   =   -102845.6185 KinEng   =       904.6991 
PotEng   =   -103750.3177 Temp     =       296.6841 Press    =      5645.6702 
Lx       =        22.6790 Ly       =        19.6387 Lz       =        22.2651 
Volume   =      9916.5666 
---------------- Step    21000 ----- CPU =   4055.6417 (sec) ----------------
Step     =          21000 TotEng   =   -102785.1935 KinEng   =       897.4884 
PotEng   =   -103682.6819 Temp     =       294.3194 Press    =     -1683.8718 
Lx       =        22.7150 Ly       =        19.6753 Lz       =        22.2147 
Volume   =      9928.2874 
---------------- Step    22000 ----- CPU =   4248.6778 (sec) ----------------
Step     =          22000 TotEng   =   -102774.7404 KinEng   =       898.9746 
PotEng   =   -103673.7149 Temp     =       294.8068 Press    =     -1233.6955 
Lx       =        22.6748 Ly       =        19.6875 Lz       =        22.1789 
Volume   =      9900.8639 
---------------- Step    23000 ----- CPU =   4442.9046 (sec) ----------------
Step     =          23000 TotEng   =   -102829.9709 KinEng   =       859.1781 
PotEng   =   -103689.1490 Temp     =       281.7561 Press    =     -1687.6009 
Lx       =        22.7276 Ly       =        19.6059 Lz       =        22.2622 
Volume   =      9919.9440 
---------------- Step    24000 ----- CPU =   4635.7148 (sec) ----------------
Step     =          24000 TotEng   =   -102831.3404 KinEng   =       897.8782 
PotEng   =   -103729.2186 Temp     =       294.4472 Press    =      1041.1298 
Lx       =        22.8104 Ly       =        19.7093 Lz       =        22.2326 
Volume   =      9995.2488 
---------------- Step    25000 ----- CPU =   4828.3374 (sec) ----------------
Step     =          25000 TotEng   =   -102766.9420 KinEng   =       916.5347 
PotEng   =   -103683.4767 Temp     =       300.5654 Press    =      3535.0885 
Lx       =        22.8464 Ly       =        19.6000 Lz       =        22.2100 
Volume   =      9945.4296 
---------------- Step    26000 ----- CPU =   5022.4175 (sec) ----------------
Step     =          26000 TotEng   =   -102784.5342 KinEng   =       948.6538 
PotEng   =   -103733.1879 Temp     =       311.0984 Press    =     -7024.8596 
Lx       =        22.7621 Ly       =        19.5938 Lz       =        22.2732 
Volume   =      9933.7474 
---------------- Step    27000 ----- CPU =   5215.9601 (sec) ----------------
Step     =          27000 TotEng   =   -102817.8229 KinEng   =       896.5125 
PotEng   =   -103714.3355 Temp     =       293.9994 Press    =      1243.6291 
Lx       =        22.7576 Ly       =        19.6016 Lz       =        22.2024 
Volume   =      9904.1910 
---------------- Step    28000 ----- CPU =   5409.1857 (sec) ----------------
Step     =          28000 TotEng   =   -102786.1529 KinEng   =       938.2394 
PotEng   =   -103724.3923 Temp     =       307.6832 Press    =      -514.4935 
Lx       =        22.6068 Ly       =        19.7747 Lz       =        22.1894 
Volume   =      9919.6115 
---------------- Step    29000 ----- CPU =   5603.7275 (sec) ----------------
Step     =          29000 TotEng   =   -102753.9551 KinEng   =       927.9996 
PotEng   =   -103681.9547 Temp     =       304.3252 Press    =      4150.3928 
Lx       =        22.6449 Ly       =        19.6489 Lz       =        22.2552 
Volume   =      9902.3974 
---------------- Step    30000 ----- CPU =   5797.2492 (sec) ----------------
Step     =          30000 TotEng   =   -102867.8164 KinEng   =       880.6314 
PotEng   =   -103748.4478 Temp     =       288.7914 Press    =      4351.9367 
Lx       =        22.8193 Ly       =        19.4686 Lz       =        22.2477 
Volume   =      9883.7708 
---------------- Step    31000 ----- CPU =   5990.7612 (sec) ----------------
Step     =          31000 TotEng   =   -102844.7694 KinEng   =       879.9951 
PotEng   =   -103724.7646 Temp     =       288.5827 Press    =     10885.5251 
Lx       =        22.7023 Ly       =        19.6223 Lz       =        22.2152 
Volume   =      9896.2472 
---------------- Step    32000 ----- CPU =   6184.9881 (sec) ----------------
Step     =          32000 TotEng   =   -102876.9215 KinEng   =       912.3429 
PotEng   =   -103789.2644 Temp     =       299.1908 Press    =      4697.8906 
Lx       =        22.6044 Ly       =        19.6115 Lz       =        22.2337 
Volume   =      9856.3566 
---------------- Step    33000 ----- CPU =   6378.6612 (sec) ----------------
Step     =          33000 TotEng   =   -102817.4565 KinEng   =       927.9727 
PotEng   =   -103745.4291 Temp     =       304.3163 Press    =      4381.1502 
Lx       =        22.7575 Ly       =        19.5533 Lz       =        22.2241 
Volume   =      9889.3812 
---------------- Step    34000 ----- CPU =   6572.9824 (sec) ----------------
Step     =          34000 TotEng   =   -102776.1169 KinEng   =       919.0004 
PotEng   =   -103695.1174 Temp     =       301.3740 Press    =       937.7220 
Lx       =        22.7359 Ly       =        19.5389 Lz       =        22.1632 
Volume   =      9845.6251 
---------------- Step    35000 ----- CPU =   6766.9417 (sec) ----------------
Step     =          35000 TotEng   =   -102814.4955 KinEng   =       886.7786 
PotEng   =   -103701.2741 Temp     =       290.8073 Press    =     -7840.4136 
Lx       =        22.7155 Ly       =        19.6373 Lz       =        22.3175 
Volume   =      9955.1952 
---------------- Step    36000 ----- CPU =   6959.8765 (sec) ----------------
Step     =          36000 TotEng   =   -102820.2651 KinEng   =       913.4742 
PotEng   =   -103733.7393 Temp     =       299.5618 Press    =      3616.7787 
Lx       =        22.7283 Ly       =        19.6791 Lz       =        22.1568 
Volume   =      9910.0932 
---------------- Step    37000 ----- CPU =   7153.5925 (sec) ----------------
Step     =          37000 TotEng   =   -102826.3917 KinEng   =       894.4644 
PotEng   =   -103720.8561 Temp     =       293.3277 Press    =     -4021.5325 
Lx       =        22.6630 Ly       =        19.7505 Lz       =        22.2945 
Volume   =      9979.1319 
---------------- Step    38000 ----- CPU =   7347.5431 (sec) ----------------
Step     =          38000 TotEng   =   -102796.0565 KinEng   =       978.0623 
PotEng   =   -103774.1188 Temp     =       320.7426 Press    =      2057.5840 
Lx       =        22.6114 Ly       =        19.6845 Lz       =        22.2270 
Volume   =      9893.1054 
---------------- Step    39000 ----- CPU =   7540.7699 (sec) ----------------
Step     =          39000 TotEng   =   -102857.8605 KinEng   =       888.2163 
PotEng   =   -103746.0768 Temp     =       291.2787 Press    =     -6733.5142 
Lx       =        22.8084 Ly       =        19.4775 Lz       =        22.3538 
Volume   =      9930.6856 
---------------- Step    40000 ----- CPU =   7735.1006 (sec) ----------------
Step     =          40000 TotEng   =   -102811.5657 KinEng   =       916.1714 
PotEng   =   -103727.7371 Temp     =       300.4462 Press    =      8338.6509 
Lx       =        22.5654 Ly       =        19.6926 Lz       =        22.2201 
Volume   =      9873.9257 
---------------- Step    41000 ----- CPU =   7929.5147 (sec) ----------------
Step     =          41000 TotEng   =   -102828.9086 KinEng   =       922.1152 
PotEng   =   -103751.0238 Temp     =       302.3954 Press    =     -1894.7044 
Lx       =        22.6657 Ly       =        19.5046 Lz       =        22.3728 
Volume   =      9890.7108 
---------------- Step    42000 ----- CPU =   8123.6499 (sec) ----------------
Step     =          42000 TotEng   =   -102817.1381 KinEng   =       902.9842 
PotEng   =   -103720.1223 Temp     =       296.1217 Press    =      -881.2214 
Lx       =        22.4999 Ly       =        19.7032 Lz       =        22.1400 
Volume   =      9815.1503 
---------------- Step    43000 ----- CPU =   8316.8547 (sec) ----------------
Step     =          43000 TotEng   =   -102808.3472 KinEng   =       903.4107 
PotEng   =   -103711.7579 Temp     =       296.2616 Press    =     -1348.9370 
Lx       =        22.6504 Ly       =        19.7839 Lz       =        22.2521 
Volume   =      9971.4207 
---------------- Step    44000 ----- CPU =   8510.9437 (sec) ----------------
Step     =          44000 TotEng   =   -102839.6926 KinEng   =       896.3059 
PotEng   =   -103735.9985 Temp     =       293.9316 Press    =     -8084.4639 
Lx       =        22.7276 Ly       =        19.6526 Lz       =        22.2138 
Volume   =      9921.8919 
---------------- Step    45000 ----- CPU =   8704.9760 (sec) ----------------
Step     =          45000 TotEng   =   -102809.2372 KinEng   =       920.1609 
PotEng   =   -103729.3981 Temp     =       301.7545 Press    =      -179.3787 
Lx       =        22.6231 Ly       =        19.8031 Lz       =        22.1630 
Volume   =      9929.1719 
---------------- Step    46000 ----- CPU =   8899.7250 (sec) ----------------
Step     =          46000 TotEng   =   -102833.3846 KinEng   =       931.6217 
PotEng   =   -103765.0064 Temp     =       305.5130 Press    =      5964.2455 
Lx       =        22.4909 Ly       =        19.6519 Lz       =        22.2944 
Volume   =      9853.8234 
---------------- Step    47000 ----- CPU =   9094.8061 (sec) ----------------
Step     =          47000 TotEng   =   -102816.9911 KinEng   =       906.0008 
PotEng   =   -103722.9920 Temp     =       297.1110 Press    =      7631.4660 
Lx       =        22.7461 Ly       =        19.5576 Lz       =        22.2585 
Volume   =      9901.8859 
---------------- Step    48000 ----- CPU =   9288.7985 (sec) ----------------
Step     =          48000 TotEng   =   -102846.8703 KinEng   =       880.5762 
PotEng   =   -103727.4466 Temp     =       288.7733 Press    =     -6203.5834 
Lx       =        22.5878 Ly       =        19.7642 Lz       =        22.2340 
Volume   =      9925.8986 
---------------- Step    49000 ----- CPU =   9482.4217 (sec) ----------------
Step     =          49000 TotEng   =   -102839.9204 KinEng   =       891.9493 
PotEng   =   -103731.8697 Temp     =       292.5029 Press    =      1622.9773 
Lx       =        22.7136 Ly       =        19.5537 Lz       =        22.2663 
Volume   =      9889.1989 
---------------- Step    50000 ----- CPU =   9675.9852 (sec) ----------------
Step     =          50000 TotEng   =   -102742.3461 KinEng   =       943.4015 
PotEng   =   -103685.7476 Temp     =       309.3760 Press    =     -3826.8706 
Lx       =        22.8763 Ly       =        19.6027 Lz       =        22.2355 
Volume   =      9971.2097 
---------------- Step    51000 ----- CPU =   9869.2084 (sec) ----------------
Step     =          51000 TotEng   =   -102801.4304 KinEng   =       907.4642 
PotEng   =   -103708.8946 Temp     =       297.5909 Press    =     -4805.3959 
Lx       =        22.7394 Ly       =        19.7202 Lz       =        22.1930 
Volume   =      9951.8782 
---------------- Step    52000 ----- CPU =  10061.8877 (sec) ----------------
Step     =          52000 TotEng   =   -102816.6150 KinEng   =       925.7346 
PotEng   =   -103742.3496 Temp     =       303.5824 Press    =     -1889.7335 
Lx       =        22.6625 Ly       =        19.7398 Lz       =        22.2366 
Volume   =      9947.6355 
---------------- Step    53000 ----- CPU =  10255.2989 (sec) ----------------
Step     =          53000 TotEng   =   -102811.4186 KinEng   =       879.7693 
PotEng   =   -103691.1879 Temp     =       288.5087 Press    =      8672.1797 
Lx       =        22.7922 Ly       =        19.5118 Lz       =        22.2279 
Volume   =      9885.1073 
---------------- Step    54000 ----- CPU =  10448.5166 (sec) ----------------
Step     =          54000 TotEng   =   -102852.5176 KinEng   =       907.2307 
PotEng   =   -103759.7483 Temp     =       297.5143 Press    =       957.2779 
Lx       =        22.7760 Ly       =        19.5899 Lz       =        22.1949 
Volume   =      9902.8798 
---------------- Step    55000 ----- CPU =  10643.2951 (sec) ----------------
Step     =          55000 To