# 

4 atoms

1 atom types

 0.0    3.6150999 xlo xhi
 0.0    3.6150999 ylo yhi
 0.0    3.6150999 zlo zhi
Masses

1 63.546 # Cu

Atoms

1       1  0.000000     0.000000000     0.000000000     0.000000000
2       1  0.000000     0.000000000     1.807549953     1.807549953
3       1  0.000000     1.807549953     0.000000000     1.807549953
4       1  0.000000     1.807549953     1.807549953     0.000000000
