LAMMPS (16 Feb 2016)
atom_style        charge
boundary        p p p

units		metal
timestep	0.001

read_data       lammps.data
  orthogonal box = (0 0 0) to (3.6151 3.6151 3.6151)
  1 by 1 by 1 MPI processor grid
  reading atoms ...
  4 atoms
pair_style      none
atom_modify     sort 0 0

compute         XRD all xrd  1.0 Cu 2Theta 20 110 c 1 1 1 LP 1 echo

fix             1 all ave/histo/weight 1 1 1 20 110 500 c_XRD[1] c_XRD[2]                 mode vector file Cu.hist.xrd

run             0
Memory usage per processor = 2.03481 Mbytes
Step Temp E_pair E_mol TotEng Press 
       0            0            0            0            0            0 
Loop time of 3.09944e-06 on 1 procs for 0 steps with 4 atoms

0.0% CPU use with 1 MPI tasks x no OpenMP threads

MPI task timing breakdown:
Section |  min time  |  avg time  |  max time  |%varavg| %total
---------------------------------------------------------------
Pair    | 0          | 0          | 0          |   0.0 |  0.00
Neigh   | 0          | 0          | 0          |   0.0 |  0.00
Comm    | 0          | 0          | 0          |   0.0 |  0.00
Output  | 0          | 0          | 0          |   0.0 |  0.00
Modify  | 0          | 0          | 0          |   0.0 |  0.00
Other   |            | 3.099e-06  |            |       |100.00

Nlocal:    4 ave 4 max 4 min
Histogram: 1 0 0 0 0 0 0 0 0 0
Nghost:    10 ave 10 max 10 min
Histogram: 1 0 0 0 0 0 0 0 0 0
Neighs:    0 ave 0 max 0 min
Histogram: 1 0 0 0 0 0 0 0 0 0

Total # of neighbors = 0
Ave neighs/atom = 0
Neighbor list builds = 0
Dangerous builds = 0


Please see the log.cite file for references relevant to this simulation

Total wall time: 0:00:00
