LAMMPS (16 Mar 2018)
atom_style        charge
boundary        p p p

units		metal
timestep	0.001

read_data       lammps.data
  orthogonal box = (0 0 0) to (3.6151 3.6151 3.6151)
  1 by 1 by 1 MPI processor grid
  reading atoms ...
  4 atoms
pair_style      none
atom_modify     sort 0 0

# synchrotron
compute         XRD all xrd  1.0 Cu 2Theta 20 110 c 1 1 1 LP 1 echo
ERROR: Unknown compute style xrd (../modify.cpp:1195)
Last command: compute         XRD all xrd  1.0 Cu 2Theta 20 110 c 1 1 1 LP 1 echo
