   2   2   0   0
  0.3200866E+02  0.2481949E-09  0.2481949E-09  0.1200000E-08  0.5000000E-15
  1.000000000000000E-004
  CAR 
 raman                                   
     16.86468557    -23.14628898  301     -1.78472293      1.00000000
    -23.146  0.0000E+00  0.0000E+00
    -23.013  0.0000E+00  0.0000E+00
    -22.880 -0.9826E-32 -0.1310E-32
    -22.746 -0.6083E-27 -0.8114E-28
    -22.613 -0.1537E-22 -0.2050E-23
    -22.479 -0.1582E-18 -0.2110E-19
    -22.346 -0.6625E-15 -0.8838E-16
    -22.213 -0.1087E-11 -0.1450E-12
    -22.079 -0.7385E-09 -0.9864E-10
    -21.946 -0.2005E-06 -0.2684E-07
    -21.813 -0.2144E-04 -0.2886E-05
    -21.679 -0.8745E-03 -0.1195E-03
    -21.546 -0.1252E-01 -0.1789E-02
    -21.412 -0.4317E-01 -0.7547E-02
    -21.279  0.1454E+00  0.1184E-01
    -21.146  0.7482E+00  0.1116E+00
    -21.012  0.7439E+00  0.2108E+00
    -20.879  0.1416E+00  0.2297E+00
    -20.746 -0.4316E-01  0.2240E+00
    -20.612 -0.1231E-01  0.2223E+00
    -20.479 -0.8517E-03  0.2222E+00
    -20.346 -0.2071E-04  0.2222E+00
    -20.212 -0.1922E-06  0.2222E+00
    -20.079 -0.7025E-09  0.2222E+00
    -19.945 -0.1026E-11  0.2222E+00
    -19.812 -0.1842E-14  0.2222E+00
    -19.679 -0.2090E-11  0.2222E+00
    -19.545 -0.1642E-08  0.2222E+00
    -19.412 -0.5169E-06  0.2222E+00
    -19.279 -0.6428E-04  0.2222E+00
    -19.145 -0.3073E-02  0.2218E+00
    -19.012 -0.5267E-01  0.2148E+00
    -18.878 -0.2462E+00  0.1819E+00
    -18.745  0.4746E+00  0.2452E+00
    -18.612  0.3932E+01  0.7697E+00
    -18.478  0.4906E+01  0.1424E+01
    -18.345  0.1340E+01  0.1603E+01
    -18.212 -0.2431E+00  0.1570E+01
    -18.078 -0.1021E+00  0.1557E+01
    -17.945 -0.8551E-02  0.1556E+01
    -17.811 -0.2453E-03  0.1556E+01
    -17.678 -0.2666E-05  0.1556E+01
    -17.545 -0.1137E-07  0.1556E+01
    -17.411 -0.1936E-10  0.1556E+01
    -17.278 -0.1332E-13  0.1556E+01
    -17.145  0.0000E+00  0.1556E+01
    -17.011  0.0000E+00  0.1556E+01
    -16.878  0.0000E+00  0.1556E+01
    -16.745  0.0000E+00  0.1556E+01
    -16.611  0.0000E+00  0.1556E+01
    -16.478  0.0000E+00  0.1556E+01
    -16.344  0.0000E+00  0.1556E+01
    -16.211  0.0000E+00  0.1556E+01
    -16.078  0.0000E+00  0.1556E+01
    -15.944 -0.8185E-27  0.1556E+01
    -15.811 -0.2159E-22  0.1556E+01
    -15.678 -0.2328E-18  0.1556E+01
    -15.544 -0.1025E-14  0.1556E+01
    -15.411 -0.1779E-11  0.1556E+01
    -15.277 -0.1288E-08  0.1556E+01
    -15.144 -0.3763E-06  0.1556E+01
    -15.011 -0.4390E-04  0.1556E+01
    -14.877 -0.1995E-02  0.1555E+01
    -14.744 -0.3308E-01  0.1551E+01
    -14.611 -0.1533E+00  0.1530E+01
    -14.477  0.2806E+00  0.1568E+01
    -14.344  0.2466E+01  0.1897E+01
    -14.211  0.3283E+01  0.2335E+01
    -14.077  0.1042E+01  0.2474E+01
    -13.944 -0.1338E+00  0.2456E+01
    -13.810 -0.7702E-01  0.2445E+01
    -13.677 -0.7519E-02  0.2444E+01
    -13.544 -0.2510E-03  0.2444E+01
    -13.410 -0.3201E-05  0.2444E+01
    -13.277 -0.1617E-07  0.2444E+01
    -13.144 -0.4833E-09  0.2444E+01
    -13.010 -0.1461E-06  0.2444E+01
    -12.877 -0.1874E-04  0.2444E+01
    -12.743 -0.9240E-03  0.2444E+01
    -12.610 -0.1639E-01  0.2442E+01
    -12.477 -0.8066E-01  0.2431E+01
    -12.343  0.1374E+00  0.2450E+01
    -12.210  0.1275E+01  0.2620E+01
    -12.077  0.1657E+01  0.2841E+01
    -11.943  0.4773E+00  0.2904E+01
    -11.810 -0.1096E+00  0.2890E+01
    -11.676 -0.2227E+00  0.2860E+01
    -11.543  0.1043E+00  0.2874E+01
    -11.410  0.2814E+01  0.3249E+01
    -11.276  0.5028E+01  0.3920E+01
    -11.143  0.2436E+01  0.4245E+01
    -11.010  0.2156E-01  0.4248E+01
    -10.876 -0.1635E+00  0.4226E+01
    -10.743 -0.2552E-01  0.4222E+01
    -10.610 -0.1295E-02  0.4222E+01
    -10.476 -0.2507E-04  0.4222E+01
    -10.343 -0.1930E-06  0.4222E+01
    -10.209 -0.1685E-08  0.4222E+01
    -10.076 -0.2781E-06  0.4222E+01
     -9.943 -0.2799E-04  0.4222E+01
     -9.809 -0.1071E-02  0.4222E+01
     -9.676 -0.1426E-01  0.4220E+01
     -9.543 -0.4277E-01  0.4214E+01
     -9.409  0.1758E+00  0.4238E+01
     -9.276  0.7794E+00  0.4342E+01
     -9.142  0.7093E+00  0.4436E+01
     -9.009  0.1140E+00  0.4452E+01
     -8.876 -0.4272E-01  0.4446E+01
     -8.742 -0.1074E-01  0.4445E+01
     -8.609 -0.6919E-03  0.4444E+01
     -8.476 -0.1581E-04  0.4444E+01
     -8.342 -0.2299E-05  0.4444E+01
     -8.209 -0.1709E-03  0.4444E+01
     -8.075 -0.5201E-02  0.4444E+01
     -7.942 -0.5684E-01  0.4436E+01
     -7.809 -0.1549E+00  0.4415E+01
     -7.675  0.5507E+00  0.4489E+01
     -7.542  0.3114E+01  0.4904E+01
     -7.409  0.4574E+01  0.5514E+01
     -7.275  0.2145E+01  0.5800E+01
     -7.142  0.4305E-02  0.5801E+01
     -7.009 -0.1501E+00  0.5781E+01
     -6.875 -0.2686E-01  0.5777E+01
     -6.742 -0.7034E-01  0.5768E+01
     -6.608 -0.2508E+00  0.5734E+01
     -6.475  0.7678E+00  0.5837E+01
     -6.342  0.4307E+01  0.6411E+01
     -6.208  0.4579E+01  0.7022E+01
     -6.075  0.1009E+01  0.7156E+01
     -5.942 -0.2504E+00  0.7123E+01
     -5.808 -0.8305E-01  0.7112E+01
     -5.675 -0.6306E-02  0.7111E+01
     -5.541 -0.4987E-03  0.7111E+01
     -5.408 -0.6522E-02  0.7110E+01
     -5.275 -0.3746E-01  0.7105E+01
     -5.141  0.3755E-01  0.7110E+01
     -5.008  0.5593E+00  0.7185E+01
     -4.875  0.8164E+00  0.7294E+01
     -4.741  0.5072E+00  0.7361E+01
     -4.608  0.7759E+00  0.7465E+01
     -4.475  0.6472E+00  0.7551E+01
     -4.341  0.8453E-01  0.7562E+01
     -4.208 -0.4161E-01  0.7557E+01
     -4.074 -0.9200E-02  0.7556E+01
     -3.941 -0.5482E-03  0.7556E+01
     -3.808 -0.1168E-04  0.7556E+01
     -3.674 -0.9554E-07  0.7556E+01
     -3.541 -0.3085E-09  0.7556E+01
     -3.408 -0.3988E-12  0.7556E+01
     -3.274 -0.3700E-15  0.7556E+01
     -3.141 -0.1294E-16  0.7556E+01
     -3.007 -0.3561E-13  0.7556E+01
     -2.874 -0.4060E-10  0.7556E+01
     -2.741 -0.1860E-07  0.7556E+01
     -2.607 -0.3389E-05  0.7556E+01
     -2.474 -0.2412E-03  0.7556E+01
     -2.341 -0.6438E-02  0.7555E+01
     -2.207 -0.5730E-01  0.7547E+01
     -2.074 -0.7495E-01  0.7537E+01
     -1.940  0.7057E+00  0.7631E+01
     -1.807  0.2289E+01  0.7936E+01
     -1.674  0.2635E+01  0.8288E+01
     -1.540  0.1231E+01  0.8452E+01
     -1.407  0.4765E-01  0.8458E+01
     -1.274 -0.8736E-01  0.8447E+01
     -1.140 -0.1532E-01  0.8445E+01
     -1.007 -0.8127E-03  0.8444E+01
     -0.874 -0.1577E-04  0.8444E+01
     -0.740 -0.1183E-06  0.8444E+01
     -0.607 -0.3514E-09  0.8444E+01
     -0.473 -0.4188E-12  0.8444E+01
     -0.340  0.0000E+00  0.8444E+01
     -0.207 -0.6832E-29  0.8444E+01
     -0.073 -0.2508E-24  0.8444E+01
      0.060 -0.3754E-20  0.8444E+01
      0.193 -0.2287E-16  0.8444E+01
      0.327 -0.5486E-13  0.8444E+01
      0.460 -0.5448E-10  0.8444E+01
      0.594 -0.2171E-07  0.8444E+01
      0.727 -0.3431E-05  0.8444E+01
      0.860 -0.2103E-03  0.8444E+01
      0.994 -0.4739E-02  0.8444E+01
      1.127 -0.3280E-01  0.8439E+01
      1.260  0.7734E-02  0.8440E+01
      1.394  0.4909E+00  0.8506E+01
      1.527  0.8803E+00  0.8623E+01
      1.661  0.3753E+00  0.8673E+01
      1.794 -0.2121E-01  0.8671E+01
      1.927 -0.2602E-01  0.8667E+01
      2.061 -0.3740E-02  0.8667E+01
      2.194 -0.1165E-01  0.8665E+01
      2.327 -0.4307E-01  0.8659E+01
      2.461  0.1261E+00  0.8676E+01
      2.594  0.6920E+00  0.8768E+01
      2.727  0.5739E+00  0.8845E+01
      2.861  0.3633E+00  0.8893E+01
      2.994  0.2851E+01  0.9274E+01
      3.128  0.4779E+01  0.9911E+01
      3.261  0.2527E+01  0.1025E+02
      3.394  0.8426E+00  0.1036E+02
      3.528  0.5805E+00  0.1044E+02
      3.661  0.1070E+00  0.1045E+02
      3.794 -0.4479E-01  0.1045E+02
      3.928 -0.1200E-01  0.1044E+02
      4.061 -0.8155E-03  0.1044E+02
      4.195 -0.2438E-04  0.1044E+02
      4.328 -0.3968E-03  0.1044E+02
      4.461 -0.1226E-01  0.1044E+02
      4.595 -0.1266E+00  0.1043E+02
      4.728 -0.2046E+00  0.1040E+02
      4.861  0.1758E+01  0.1063E+02
      4.995  0.5140E+01  0.1132E+02
      5.128  0.3469E+01  0.1178E+02
      5.262  0.2217E+00  0.1181E+02
      5.395 -0.3834E+00  0.1176E+02
      5.528 -0.1502E+00  0.1174E+02
      5.662  0.2262E+01  0.1204E+02
      5.795  0.5070E+01  0.1272E+02
      5.928  0.2805E+01  0.1309E+02
      6.062  0.2745E+01  0.1346E+02
      6.195  0.5863E+01  0.1424E+02
      6.328  0.3293E+01  0.1468E+02
      6.462  0.3100E+00  0.1472E+02
      6.595  0.8006E+00  0.1483E+02
      6.729  0.1248E+01  0.1499E+02
      6.862  0.2510E+01  0.1533E+02
      6.995  0.5188E+01  0.1602E+02
      7.129  0.3269E+01  0.1646E+02
      7.262  0.1681E+00  0.1648E+02
      7.395 -0.2299E+00  0.1645E+02
      7.529 -0.7902E-01  0.1644E+02
      7.662  0.1426E+00  0.1646E+02
      7.796  0.7470E+00  0.1656E+02
      7.929  0.7451E+00  0.1666E+02
      8.062  0.1426E+00  0.1667E+02
      8.196 -0.4388E-01  0.1667E+02
      8.329 -0.2605E-01  0.1666E+02
      8.462 -0.7702E-01  0.1665E+02
      8.596  0.8927E-01  0.1667E+02
      8.729  0.1177E+01  0.1682E+02
      8.862  0.1705E+01  0.1705E+02
      8.996  0.5619E+00  0.1713E+02
      9.129 -0.1038E+00  0.1711E+02
      9.263 -0.3059E-01  0.1711E+02
      9.396  0.4922E+00  0.1717E+02
      9.529  0.8178E+00  0.1728E+02
      9.663  0.1125E+00  0.1730E+02
      9.796  0.5954E+00  0.1738E+02
      9.929  0.4117E+01  0.1793E+02
     10.063  0.4716E+01  0.1856E+02
     10.196  0.1466E+01  0.1875E+02
     10.330  0.6154E+00  0.1883E+02
     10.463  0.4237E+00  0.1889E+02
     10.596 -0.8234E-01  0.1888E+02
     10.730  0.1037E+00  0.1889E+02
     10.863  0.1387E+01  0.1908E+02
     10.996  0.2457E+01  0.1940E+02
     11.130  0.3209E+01  0.1983E+02
     11.263  0.5200E+01  0.2053E+02
     11.397  0.4079E+01  0.2107E+02
     11.530  0.1557E+01  0.2128E+02
     11.663  0.1502E+01  0.2148E+02
     11.797  0.6844E+00  0.2157E+02
     11.930 -0.4725E-01  0.2156E+02
     12.063 -0.5177E-01  0.2156E+02
     12.197 -0.6058E-02  0.2156E+02
     12.330 -0.4599E-02  0.2155E+02
     12.463 -0.3166E-01  0.2155E+02
     12.597  0.3842E-03  0.2155E+02
     12.730  0.4422E+00  0.2161E+02
     12.864  0.6802E+00  0.2170E+02
     12.997  0.3673E+00  0.2175E+02
     13.130  0.2894E+01  0.2214E+02
     13.264  0.6273E+01  0.2297E+02
     13.397  0.3935E+01  0.2350E+02
     13.530  0.3034E+00  0.2354E+02
     13.664  0.1617E+01  0.2375E+02
     13.797  0.6206E+01  0.2458E+02
     13.931  0.5040E+01  0.2525E+02
     14.064  0.1588E+01  0.2546E+02
     14.197  0.2880E+01  0.2585E+02
     14.331  0.3216E+01  0.2628E+02
     14.464  0.1962E+01  0.2654E+02
     14.597  0.7074E+00  0.2663E+02
     14.731  0.1408E+01  0.2682E+02
     14.864  0.4693E+01  0.2745E+02
     14.998  0.3879E+01  0.2796E+02
     15.131  0.5588E+00  0.2804E+02
     15.264 -0.2346E+00  0.2801E+02
     15.398 -0.5738E-01  0.2800E+02
     15.531 -0.3736E-02  0.2800E+02
     15.664 -0.8759E-04  0.2800E+02
     15.798 -0.7937E-06  0.2800E+02
     15.931 -0.2854E-08  0.2800E+02
     16.064 -0.4121E-11  0.2800E+02
     16.198 -0.2960E-14  0.2800E+02
     16.331  0.0000E+00  0.2800E+02
     16.465  0.0000E+00  0.2800E+02
     16.598  0.0000E+00  0.2800E+02
     16.731  0.0000E+00  0.2800E+02
     16.865  0.0000E+00  0.2800E+02
