 vasp.5.4.4.18Apr17-6-g9f103f2a35 (build May 02 2017 19:20:32) complex          
  
 executed on    fermion-Intel-MKL date 2017.12.10  16:50:49
 running on    7 total cores
 distrk:  each k-point on    7 cores,    1 groups
 distr:  one band on NCORES_PER_BAND=   1 cores,    7 groups


--------------------------------------------------------------------------------------------------------


 INCAR:
 POTCAR:   PAW_PBE C 08Apr2002                    

 ----------------------------------------------------------------------------- 
|                                                                             |
|           W    W    AA    RRRRR   N    N  II  N    N   GGGG   !!!           |
|           W    W   A  A   R    R  NN   N  II  NN   N  G    G  !!!           |
|           W    W  A    A  R    R  N N  N  II  N N  N  G       !!!           |
|           W WW W  AAAAAA  RRRRR   N  N N  II  N  N N  G  GGG   !            |
|           WW  WW  A    A  R   R   N   NN  II  N   NN  G    G                |
|           W    W  A    A  R    R  N    N  II  N    N   GGGG   !!!           |
|                                                                             |
|      For optimal performance we recommend to set                            |
|        NCORE= 4 - approx SQRT( number of cores)                             |
|      NCORE specifies how many cores store one orbital (NPAR=cpu/NCORE).     |
|      This setting can  greatly improve the performance of VASP for DFT.     |
|      The default,   NCORE=1            might be grossly inefficient         |
|      on modern multi-core architectures or massively parallel machines.     |
|      Do your own testing !!!!                                               |
|      Unfortunately you need to use the default for GW and RPA calculations. |
|      (for HF NCORE is supported but not extensively tested yet)             |
|                                                                             |
 ----------------------------------------------------------------------------- 

 POTCAR:   PAW_PBE C 08Apr2002                    
   VRHFIN =C: s2p2                                                              
   LEXCH  = PE                                                                  
   EATOM  =   147.1560 eV,   10.8157 Ry                                         
                                                                                
   TITEL  = PAW_PBE C 08Apr2002                                                 
   LULTRA =        F    use ultrasoft PP ?                                      
   IUNSCR =        0    unscreen: 0-lin 1-nonlin 2-no                           
   RPACOR =     .000    partial core radius                                     
   POMASS =   12.011; ZVAL   =    4.000    mass and valenz                      
   RCORE  =    1.500    outmost cutoff radius                                   
   RWIGS  =    1.630; RWIGS  =     .863    wigner-seitz radius (au A)           
   ENMAX  =  400.000; ENMIN  =  300.000 eV                                      
   ICORE  =        2    local potential                                         
   LCOR   =        T    correct aug charges                                     
   LPAW   =        T    paw PP                                                  
   EAUG   =  644.873                                                            
   DEXC   =     .000                                                            
   RMAX   =    2.266    core radius for proj-oper                               
   RAUG   =    1.300    factor for augmentation sphere                          
   RDEP   =    1.501    radius for radial grids                                 
   RDEPT  =    1.300    core radius for aug-charge                              
   QCUT   =   -5.516; QGAM   =   11.032    optimization parameters              
                                                                                
   Description                                                                  
     l     E      TYP  RCUT    TYP  RCUT                                        
     0   .000     23  1.200                                                     
     0   .000     23  1.200                                                     
     1   .000     23  1.500                                                     
     1  2.500     23  1.500                                                     
     2   .000      7  1.500                                                     
  local pseudopotential read in
  atomic valenz-charges read in
  non local Contribution for L=           0  read in
    real space projection operators read in
  non local Contribution for L=           0  read in
    real space projection operators read in
  non local Contribution for L=           1  read in
    real space projection operators read in
  non local Contribution for L=           1  read in
    real space projection operators read in
    PAW grid and wavefunctions read in
 
   number of l-projection  operators is LMAX  =           4
   number of lm-projection operators is LMMAX =           8
 

 ----------------------------------------------------------------------------- 
|                                                                             |
|  ADVICE TO THIS USER RUNNING 'VASP/VAMP'   (HEAR YOUR MASTER'S VOICE ...):  |
|                                                                             |
|      You have a (more or less) 'small supercell' and for smaller cells      |
|      it is recommended  to use the reciprocal-space projection scheme!      |
|      The real space optimization is not  efficient for small cells and it   |
|      is also less accurate ...                                              |
|      Therefore set LREAL=.FALSE. in the  INCAR file                         |
|                                                                             |
 ----------------------------------------------------------------------------- 

 Optimization of the real space projectors (new method)

 maximal supplied QI-value         = 25.13
 optimisation between [QCUT,QGAM] = [ 10.05, 20.36] = [ 28.30,116.06] Ry 
 Optimized for a Real-space Cutoff    1.30 Angstroem

   l    n(q)    QCUT    max X(q) W(low)/X(q) W(high)/X(q)  e(spline) 
   0      8    10.053     5.582    0.43E-04    0.44E-04    0.61E-07
   0      8    10.053    69.432    0.49E-03    0.71E-03    0.18E-06
   1      7    10.053     2.780    0.78E-04    0.13E-03    0.11E-06
   1      7    10.053     4.549    0.23E-03    0.19E-03    0.20E-06
 PAW_PBE C 08Apr2002                    :
 energy of atom  1       EATOM= -147.1560
 kinetic energy error for atom=    0.0288 (will be added to EATOM!!)
 
 
 POSCAR: OUTCAR.0005.-1.out 1.0e-02              
  positions in cartesian coordinates
  No initial velocities read in
 exchange correlation table for  LEXCH =        8
   RHO(1)=    0.500       N(1)  =     2000
   RHO(2)=  100.500       N(2)  =     4000
 


--------------------------------------------------------------------------------------------------------


 ion  position               nearest neighbor table
   1  0.000  0.997  0.142-   2 1.42   2 1.43   2 1.44
   2  0.333  0.669  0.142-   1 1.42   1 1.43   1 1.44
 

IMPORTANT INFORMATION: All symmetrisations will be switched off!
NOSYMM: (Re-)initialisation of all symmetry stuff for point group C_1.

 
 
 KPOINTS: K-Points                                

Automatic generation of k-mesh.
Space group operators:
 irot       det(A)        alpha          n_x          n_y          n_z        tau_x        tau_y        tau_z
    1     1.000000     0.000000     1.000000     0.000000     0.000000     0.000000     0.000000     0.000000
 
 Subroutine IBZKPT returns following result:
 ===========================================
 
 Found      5 irreducible k-points:
 
 Following reciprocal coordinates:
            Coordinates               Weight
  0.000000  0.000000  0.000000      1.000000
  0.333333  0.000000  0.000000      2.000000
  0.000000  0.333333  0.000000      2.000000
  0.333333  0.333333  0.000000      2.000000
 -0.333333  0.333333  0.000000      2.000000
 
 Following cartesian coordinates:
            Coordinates               Weight
  0.000000  0.000000  0.000000      1.000000
  0.134303  0.077540 -0.000000      2.000000
  0.000000  0.155080 -0.000000      2.000000
  0.134303  0.232620 -0.000000      2.000000
 -0.134303  0.077540  0.000000      2.000000
 
 
 Subroutine IBZKPT_HF returns following result:
 ==============================================
 
 Found      9 k-points in 1st BZ
 the following      9 k-points will be used (e.g. in the exchange kernel)
 Following reciprocal coordinates:   # in IRBZ
  0.000000  0.000000  0.000000    0.11111111   1 t-inv F
  0.333333  0.000000  0.000000    0.11111111   2 t-inv F
  0.000000  0.333333  0.000000    0.11111111   3 t-inv F
  0.333333  0.333333  0.000000    0.11111111   4 t-inv F
 -0.333333  0.333333  0.000000    0.11111111   5 t-inv F
 -0.333333 -0.000000 -0.000000    0.11111111   2 t-inv T
  0.000000 -0.333333 -0.000000    0.11111111   3 t-inv T
 -0.333333 -0.333333 -0.000000    0.11111111   4 t-inv T
  0.333333 -0.333333  0.000000    0.11111111   5 t-inv T


--------------------------------------------------------------------------------------------------------




 Dimension of arrays:
   k-points           NKPTS =      5   k-points in BZ     NKDIM =      5   number of bands    NBANDS=     14
   number of dos      NEDOS =    301   number of ions     NIONS =      2
   non local maximal  LDIM  =      4   non local SUM 2l+1 LMDIM =      8
   total plane-waves  NPLWV =   8640
   max r-space proj   IRMAX =   1295   max aug-charges    IRDMAX=  12939
   dimension x,y,z NGX =    12 NGY =   12 NGZ =   60
   dimension x,y,z NGXF=    24 NGYF=   24 NGZF=  120
   support grid    NGXF=    48 NGYF=   48 NGZF=  240
   ions per type =               2
   NGX,Y,Z   is equivalent  to a cutoff of   8.04,  8.04,  8.31 a.u.
   NGXF,Y,Z  is equivalent  to a cutoff of  16.08, 16.08, 16.62 a.u.

 SYSTEM =  raman                                   
 POSCAR =  OUTCAR.0005.-1.out 1.0e-02              

 Startparameter for this run:
   NWRITE =      3    write-flag & timer
   PREC   = n         normal or accurate (medium, high low for compatibility)
   ISTART =      0    job   : 0-new  1-cont  2-samecut
   ICHARG =      2    charge: 1-file 2-atom 10-const
   ISPIN  =      1    spin polarized calculation?
   LNONCOLLINEAR =      F non collinear calculations
   LSORBIT =      F    spin-orbit coupling
   INIWAV =      1    electr: 0-lowe 1-rand  2-diag
   LASPH  =      F    aspherical Exc in radial PAW
   METAGGA=      F    non-selfconsistent MetaGGA calc.

 Electronic Relaxation 1
   ENCUT  =  400.0 eV  29.40 Ry    5.42 a.u.   4.05  4.05 19.57*2*pi/ulx,y,z
   ENINI  =  400.0     initial cutoff
   ENAUG  =  644.9 eV  augmentation charge cutoff
   NELM   =     60;   NELMIN=  4; NELMDL= -5     # of ELM steps 
   EDIFF  = 0.1E-03   stopping-criterion for ELM
   LREAL  =      T    real-space projection
   NLSPLINE    = F    spline interpolate recip. space projectors
   LCOMPAT=      F    compatible to vasp.4.4
   GGA_COMPAT  = T    GGA compatible to vasp.4.4-vasp.4.6
   LMAXPAW     = -100 max onsite density
   LMAXMIX     =    2 max onsite mixed and CHGCAR
   VOSKOWN=      0    Vosko Wilk Nusair interpolation
   ROPT   =   -0.00050
 Ionic relaxation
   EDIFFG = 0.1E-02   stopping-criterion for IOM
   NSW    =      0    number of steps for IOM
   NBLOCK =      1;   KBLOCK =      1    inner block; outer block 
   IBRION =     -1    ionic relax: 0-MD 1-quasi-New 2-CG
   NFREE  =      0    steps in history (QN), initial steepest desc. (CG)
   ISIF   =      2    stress and relaxation
   IWAVPR =     10    prediction:  0-non 1-charg 2-wave 3-comb
   ISYM   =      0    0-nonsym 1-usesym 2-fastsym
   LCORR  =      T    Harris-Foulkes like correction to forces

   POTIM  = 0.5000    time-step for ionic-motion
   TEIN   =    0.0    initial temperature
   TEBEG  =    0.0;   TEEND  =   0.0 temperature during run
   SMASS  =  -3.00    Nose mass-parameter (am)
   estimated Nose-frequenzy (Omega)   =  0.10E-29 period in steps =****** mass=  -0.141E-27a.u.
   SCALEE = 1.0000    scale energy and forces
   NPACO  =    256;   APACO  = 16.0  distance and # of slots for P.C.
   PSTRESS=    0.0 pullay stress

  Mass of Ions in am
   POMASS =  12.01
  Ionic Valenz
   ZVAL   =   4.00
  Atomic Wigner-Seitz radii
   RWIGS  =  -1.00
  virtual crystal weights 
   VCA    =   1.00
   NELECT =       8.0000    total number of electrons
   NUPDOWN=      -1.0000    fix difference up-down

 DOS related values:
   EMIN   =  10.00;   EMAX   =-10.00  energy-range for DOS
   EFERMI =   0.00
   ISMEAR =     1;   SIGMA  =   0.20  broadening in eV -4-tet -1-fermi 0-gaus

 Electronic relaxation 2 (details)
   IALGO  =     38    algorithm
   LDIAG  =      T    sub-space diagonalisation (order eigenvalues)
   LSUBROT=      F    optimize rotation matrix (better conditioning)
   TURBO    =      0    0=normal 1=particle mesh
   IRESTART =      0    0=no restart 2=restart with 2 vectors
   NREBOOT  =      0    no. of reboots
   NMIN     =      0    reboot dimension
   EREF     =   0.00    reference energy to select bands
   IMIX   =      4    mixing-type and parameters
     AMIX     =   0.40;   BMIX     =  1.00
     AMIX_MAG =   1.60;   BMIX_MAG =  1.00
     AMIN     =   0.10
     WC   =   100.;   INIMIX=   1;  MIXPRE=   1;  MAXMIX= -45

 Intra band minimization:
   WEIMIN = 0.0000     energy-eigenvalue tresh-hold
   EBREAK =  0.18E-05  absolut break condition
   DEPER  =   0.30     relativ break condition  

   TIME   =   0.40     timestep for ELM

  volume/ion in A,a.u.               =      32.01       216.01
  Fermi-wavevector in a.u.,A,eV,Ry     =   0.818475  1.546694  9.114571  0.669902
  Thomas-Fermi vector in A             =   1.929109
 
 Write flags
   LWAVE        =      F    write WAVECAR
   LDOWNSAMPLE  =      F    k-point downsampling of WAVECAR
   LCHARG       =      F    write CHGCAR
   LVTOT        =      F    write LOCPOT, total local potential
   LVHAR        =      F    write LOCPOT, Hartree potential only
   LELF         =      F    write electronic localiz. function (ELF)
   LORBIT       =      0    0 simple, 1 ext, 2 COOP (PROOUT), +10 PAW based schemes


 Dipole corrections
   LMONO  =      F    monopole corrections only (constant potential shift)
   LDIPOL =      F    correct potential (dipole corrections)
   IDIPOL =      0    1-x, 2-y, 3-z, 4-all directions 
   EPSILON=  1.0000000 bulk dielectric constant

 Exchange correlation treatment:
   GGA     =    --    GGA type
   LEXCH   =     8    internal setting for exchange type
   VOSKOWN=      0    Vosko Wilk Nusair interpolation
   LHFCALC =     F    Hartree Fock is set to
   LHFONE  =     F    Hartree Fock one center treatment
   AEXX    =    0.0000 exact exchange contribution

 Linear response parameters
   LEPSILON=     T    determine dielectric tensor
   LRPA    =     F    only Hartree local field effects (RPA)
   LNABLA  =     F    use nabla operator in PAW spheres
   LVEL    =     F    velocity operator in full k-point grid
   LINTERFAST=   F  fast interpolation
   KINTER  =     0    interpolate to denser k-point grid
   CSHIFT  =0.1000    complex shift for real part using Kramers Kronig
   OMEGAMAX=  -1.0    maximum frequency
   DEG_THRESHOLD= 0.2000000E-02 threshold for treating states as degnerate
   RTIME   =   -0.100 relaxation time in fs
  (WPLASMAI=    0.000 imaginary part of plasma frequency in eV, 0.658/RTIME)
   DFIELD  = 0.0000000 0.0000000 0.0000000 field for delta impulse in time
 
 Orbital magnetization related:
   ORBITALMAG=     F  switch on orbital magnetization
   LCHIMAG   =     F  perturbation theory with respect to B field
   DQ        =  0.001000  dq finite difference perturbation B field
   LLRAUG    =     F  two centre corrections for induced B field



--------------------------------------------------------------------------------------------------------


 Static calculation
 charge density and potential will be updated during run
 non-spin polarized calculation
 Variant of blocked Davidson
 Davidson routine will perform the subspace rotation
 perform sub-space diagonalisation
    after iterative eigenvector-optimisation
 modified Broyden-mixing scheme, WC =      100.0
 initial mixing is a Kerker type mixing with AMIX =  0.4000 and BMIX =      1.0000
 Hartree-type preconditioning will be used
 using additional bands           10
 real space projection scheme for non local part
 calculate Harris-corrections to forces 
   (improved forces if not selfconsistent)
 use gradient corrections 
 use of overlap-Matrix (Vanderbilt PP)
 Methfessel and Paxton  Order N= 1 SIGMA  =   0.20


--------------------------------------------------------------------------------------------------------


  energy-cutoff  :      400.00
  volume of cell :       64.02
      direct lattice vectors                 reciprocal lattice vectors
     2.481948769  0.000000000  0.000000000     0.402909203  0.232619737 -0.000000000
    -1.240974385  2.149430685  0.000000000     0.000000000  0.465239473 -0.000000000
     0.000000000  0.000000000 12.000000000     0.000000000  0.000000000  0.083333333

  length of vectors
     2.481948769  2.481948769 12.000000000     0.465239473  0.465239473  0.083333333


 
 k-points in units of 2pi/SCALE and weight: K-Points                                
   0.00000000  0.00000000  0.00000000       0.111
   0.13430307  0.07753991 -0.00000000       0.222
   0.00000000  0.15507982 -0.00000000       0.222
   0.13430307  0.23261974 -0.00000000       0.222
  -0.13430307  0.07753991  0.00000000       0.222
 
 k-points in reciprocal lattice and weights: K-Points                                
   0.00000000  0.00000000  0.00000000       0.111
   0.33333333  0.00000000  0.00000000       0.222
   0.00000000  0.33333333  0.00000000       0.222
   0.33333333  0.33333333  0.00000000       0.222
  -0.33333333  0.33333333  0.00000000       0.222
 
 position of ions in fractional coordinates (direct lattice) 
   0.00014219  0.99722618  0.14167007
   0.33318371  0.66944447  0.14167045
 
 position of ions in cartesian coordinates  (Angst):
  -1.23717924  2.14346855  1.70004085
  -0.00381856  1.43892449  1.70004535
 


--------------------------------------------------------------------------------------------------------


 k-point  1 :   0.0000 0.0000 0.0000  plane waves:    1125
 k-point  2 :   0.3333 0.0000 0.0000  plane waves:    1167
 k-point  3 :   0.0000 0.3333 0.0000  plane waves:    1167
 k-point  4 :   0.3333 0.3333 0.0000  plane waves:    1146
 k-point  5 :  -0.3333 0.3333 0.0000  plane waves:    1167

 maximum and minimum number of plane-waves per node :      1167     1125

 maximum number of plane-waves:      1167
 maximum index in each direction: 
   IXMAX=    4   IYMAX=    4   IZMAX=   19
   IXMIN=   -4   IYMIN=   -4   IZMIN=  -19


 serial   3D FFT for wavefunctions
 parallel 3D FFT for charge:
    minimum data exchange during FFTs selected (reduces bandwidth)


 total amount of memory used by VASP MPI-rank0    32839. kBytes
=======================================================================

   base      :      30000. kBytes
   nonlr-proj:        210. kBytes
   fftplans  :       1526. kBytes
   grid      :        907. kBytes
   one-center:          6. kBytes
   wavefun   :        190. kBytes
 
     INWAV:  cpu time    0.0000: real time    0.0000
 Broyden mixing: mesh for mixing (old mesh)
   NGX =  9   NGY =  9   NGZ = 39
  (NGX  = 24   NGY  = 24   NGZ  =120)
  gives a total of   3159 points

 initial charge density was supplied:
 charge density of overlapping atoms calculated
 number of electron       8.0000000 magnetization 
 keeping initial charge density in first step


--------------------------------------------------------------------------------------------------------


 Maximum index for non-local projection operator         1196
 Maximum index for augmentation-charges         1875 (set IRDMAX)


--------------------------------------------------------------------------------------------------------


 First call to EWALD:  gamma=   0.443
 Maximum number of real-space cells 5x 5x 1
 Maximum number of reciprocal cells 2x 2x 7

    FEWALD:  cpu time    0.0010: real time    0.0011


----------------------------------------- Iteration    1(   1)  ---------------------------------------


    POTLOK:  cpu time    0.0130: real time    0.0126
    SETDIJ:  cpu time    0.0060: real time    0.0067
     EDDAV:  cpu time    0.1240: real time    0.3447
       DOS:  cpu time    0.0010: real time    0.0005
    --------------------------------------------
      LOOP:  cpu time    0.1460: real time    0.3677

 eigenvalue-minimisations  :   140
 total energy-change (2. order) : 0.1320106E+02  (-0.3579766E+03)
 number of electron       8.0000000 magnetization 
 augmentation part        8.0000000 magnetization 

 Free energy of the ion-electron system (eV)
  ---------------------------------------------------
  alpha Z        PSCENC =         5.09113229
  Ewald energy   TEWEN  =       551.15210716
  -Hartree energ DENC   =      -777.06226536
  -exchange      EXHF   =         0.00000000
  -V(xc)+E(xc)   XCENC  =        27.46742435
  PAW double counting   =        75.66288619      -77.96384553
  entropy T*S    EENTRO =        -0.00786023
  eigenvalues    EBANDS =       -85.39296651
  atomic energy  EATOM  =       294.25444774
  Solvation  Ediel_sol  =         0.00000000
  ---------------------------------------------------
  free energy    TOTEN  =        13.20106010 eV

  energy without entropy =       13.20892033  energy(sigma->0) =       13.20368018


--------------------------------------------------------------------------------------------------------




 average (electrostatic) potential at core
  the test charge radii are     0.6991
  (the norm of the test charge is              1.0000)
       1 -62.8987       2 -62.8987
 
 
 
 E-fermi :   2.7100     XC(G=0):  -3.9366     alpha+bet : -3.1363


 k-point     1 :       0.0000    0.0000    0.0000
  band No.  band energies     occupation 
      1     -24.3028      2.00000
      2     -11.2474      2.00000
      3      -4.0437      2.00000
      4       1.3154      2.00000
      5       2.6247      1.65415
      6       3.0162     -0.05251
      7       3.8862     -0.00000
      8       6.9362     -0.00000
      9       8.2249      0.00000
     10      11.0136      0.00000
     11      14.0190      0.00000
     12      15.8284      0.00000
     13      20.9327      0.00000
     14      21.5957      0.00000

 k-point     2 :       0.3333    0.0000    0.0000
  band No.  band energies     occupation 
      1     -21.8233      2.00000
      2     -11.4597      2.00000
      3      -7.4876      2.00000
      4      -5.5288      2.00000
      5       5.1525     -0.00000
      6       6.6321     -0.00000
      7       7.5093     -0.00000
      8       9.9771      0.00000
      9      11.7189      0.00000
     10      13.7290      0.00000
     11      16.8286      0.00000
     12      17.8634      0.00000
     13      20.7294      0.00000
     14      25.1068      0.00000

 k-point     3 :       0.0000    0.3333    0.0000
  band No.  band energies     occupation 
      1     -21.8364      2.00000
      2     -10.3474      2.00000
      3      -7.6709      2.00000
      4      -3.4033      2.00000
      5       5.2368     -0.00000
      6       6.4675     -0.00000
      7       7.4898     -0.00000
      8      10.0492      0.00000
      9      11.7696      0.00000
     10      13.4046      0.00000
     11      16.3085      0.00000
     12      18.3870      0.00000
     13      18.9518      0.00000
     14      20.2812      0.00000

 k-point     4 :       0.3333    0.3333    0.0000
  band No.  band energies     occupation 
      1     -16.7996      2.00000
      2     -14.8752      2.00000
      3     -12.9623      2.00000
      4       0.0125      2.00000
      5       3.0003     -0.05949
      6      12.2411      0.00000
      7      13.1414      0.00000
      8      13.5839      0.00000
      9      14.2765      0.00000
     10      14.8719      0.00000
     11      16.1967      0.00000
     12      17.5992      0.00000
     13      19.4717      0.00000
     14      21.2936      0.00000

 k-point     5 :      -0.3333    0.3333    0.0000
  band No.  band energies     occupation 
      1     -21.6724      2.00000
      2     -12.6263      2.00000
      3      -7.1567      2.00000
      4       2.6791      1.25867
      5       5.2781     -0.00000
      6       7.1426     -0.00000
      7       7.8993     -0.00000
      8       9.4658      0.00000
      9      12.1271      0.00000
     10      15.4172      0.00000
     11      17.8502      0.00000
     12      19.4929      0.00000
     13      21.9760      0.00000
     14      22.1701      0.00000


--------------------------------------------------------------------------------------------------------


 soft charge-density along one line, spin component           1
         0         1         2         3         4         5         6         7         8         9
 total charge-density along one line
 
 pseudopotential strength for first ion, spin component:           1
 10.479   0.027  -0.001   0.000   0.000   0.001  -0.000  -0.000
  0.027  -0.001   0.000  -0.000  -0.000   0.000  -0.000  -0.000
 -0.001   0.000  -4.630   0.000   0.001  -0.003   0.000   0.000
  0.000  -0.000   0.000  -4.598  -0.000   0.000   0.002  -0.000
  0.000  -0.000   0.001  -0.000  -4.632   0.000  -0.000  -0.003
  0.001   0.000  -0.003   0.000   0.000  -0.776   0.000   0.000
 -0.000  -0.000   0.000   0.002  -0.000   0.000  -0.775  -0.000
 -0.000  -0.000   0.000  -0.000  -0.003   0.000  -0.000  -0.776
 total augmentation occupancy for first ion, spin component:           1
  2.000   0.000   0.000   0.000   0.000   0.000   0.000   0.000
  0.000   0.000   0.000   0.000   0.000   0.000   0.000   0.000
  0.000   0.000   0.667   0.000   0.000   0.000   0.000   0.000
  0.000   0.000   0.000   0.667   0.000   0.000   0.000   0.000
  0.000   0.000   0.000   0.000   0.667   0.000   0.000   0.000
  0.000   0.000   0.000   0.000   0.000   0.000   0.000   0.000
  0.000   0.000   0.000   0.000   0.000   0.000   0.000   0.000
  0.000   0.000   0.000   0.000   0.000   0.000   0.000   0.000


----------------------------------------- Iteration    1(   2)  ---------------------------------------


     EDDAV:  cpu time    0.1970: real time    0.3504
       DOS:  cpu time    0.0000: real time    0.0005
    --------------------------------------------
      LOOP:  cpu time    0.1980: real time    0.3528

 eigenvalue-minimisations  :   224
 total energy-change (2. order) :-0.3197309E+02  (-0.3017759E+02)
 number of electron       8.0000000 magnetization 
 augmentation part        8.0000000 magnetization 

 Free energy of the ion-electron system (eV)
  ---------------------------------------------------
  alpha Z        PSCENC =         5.09113229
  Ewald energy   TEWEN  =       551.15210716
  -Hartree energ DENC   =      -777.06226536
  -exchange      EXHF   =         0.00000000
  -V(xc)+E(xc)   XCENC  =        27.46742435
  PAW double counting   =        75.66288619      -77.96384553
  entropy T*S    EENTRO =        -0.00366598
  eigenvalues    EBANDS =      -117.37024908
  atomic energy  EATOM  =       294.25444774
  Solvation  Ediel_sol  =         0.00000000
  ---------------------------------------------------
  free energy    TOTEN  =       -18.77202822 eV

  energy without entropy =      -18.76836224  energy(sigma->0) =      -18.77080623


--------------------------------------------------------------------------------------------------------




 average (electrostatic) potential at core
  the test charge radii are     0.6991
  (the norm of the test charge is              1.0000)
       1 -62.8987       2 -62.8987
 
 
 
 E-fermi :  -4.9236     XC(G=0):  -3.9366     alpha+bet : -3.1363


 k-point     1 :       0.0000    0.0000    0.0000
  band No.  band energies     occupation 
      1     -25.0229      2.00000
      2     -12.1695      2.00000
      3      -9.6339      2.00000
      4      -9.0269      2.00000
      5       1.2683      0.00000
      6       2.2170      0.00000
      7       2.5967      0.00000
      8       2.8281      0.00000
      9       3.6389      0.00000
     10       5.9049      0.00000
     11       6.4835      0.00000
     12       6.5362      0.00000
     13       7.7098      0.00000
     14      12.5944      0.00000

 k-point     2 :       0.3333    0.0000    0.0000
  band No.  band energies     occupation 
      1     -22.5570      2.00000
      2     -15.5837      2.00000
      3     -11.9895      2.00000
      4      -9.3301      2.00000
      5      -0.1695     -0.00000
      6       2.0130      0.00000
      7       4.7287      0.00000
      8       6.0468      0.00000
      9       7.1863      0.00000
     10       9.7206      0.00000
     11      10.0730      0.00000
     12      10.5903      0.00000
     13      11.1653      0.00000
     14      13.8354      0.00000

 k-point     3 :       0.0000    0.3333    0.0000
  band No.  band energies     occupation 
      1     -22.5554      2.00000
      2     -15.4895      2.00000
      3     -12.0994      2.00000
      4      -9.3552      2.00000
      5      -0.0725     -0.00000
      6       1.9964      0.00000
      7       4.7303      0.00000
      8       6.0421      0.00000
      9       7.1873      0.00000
     10       9.7179      0.00000
     11      10.0573      0.00000
     12      10.5201      0.00000
     13      11.1969      0.00000
     14      13.7381      0.00000

 k-point     4 :       0.3333    0.3333    0.0000
  band No.  band energies     occupation 
      1     -18.5544      2.00000
      2     -18.3467      2.00000
      3     -16.2893      2.00000
      4      -5.0488      1.86265
      5      -4.7984      0.13735
      6       7.3179      0.00000
      7       8.2388      0.00000
      8       9.4649      0.00000
      9      10.3992      0.00000
     10      12.6260      0.00000
     11      12.9697      0.00000
     12      13.3654      0.00000
     13      13.4542      0.00000
     14      14.3228      0.00000

 k-point     5 :      -0.3333    0.3333    0.0000
  band No.  band energies     occupation 
      1     -22.5455      2.00000
      2     -15.6281      2.00000
      3     -11.5519      2.00000
      4      -9.2494      2.00000
      5       0.1369     -0.00000
      6       2.8149      0.00000
      7       4.7465      0.00000
      8       6.1282      0.00000
      9       7.2171      0.00000
     10       9.8651      0.00000
     11      11.2634      0.00000
     12      14.0620      0.00000
     13      15.0567      0.00000
     14      16.7721      0.00000


--------------------------------------------------------------------------------------------------------


 soft charge-density along one line, spin component           1
         0         1         2         3         4         5         6         7         8         9
 total charge-density along one line
 
 pseudopotential strength for first ion, spin component:           1
 10.479   0.027  -0.001   0.000   0.000   0.001  -0.000  -0.000
  0.027  -0.001   0.000  -0.000  -0.000   0.000  -0.000  -0.000
 -0.001   0.000  -4.630   0.000   0.001  -0.003   0.000   0.000
  0.000  -0.000   0.000  -4.598  -0.000   0.000   0.002  -0.000
  0.000  -0.000   0.001  -0.000  -4.632   0.000  -0.000  -0.003
  0.001   0.000  -0.003   0.000   0.000  -0.776   0.000   0.000
 -0.000  -0.000   0.000   0.002  -0.000   0.000  -0.775  -0.000
 -0.000  -0.000   0.000  -0.000  -0.003   0.000  -0.000  -0.776
 total augmentation occupancy for first ion, spin component:           1
  2.000   0.000   0.000   0.000   0.000   0.000   0.000   0.000
  0.000   0.000   0.000   0.000   0.000   0.000   0.000   0.000
  0.000   0.000   0.667   0.000   0.000   0.000   0.000   0.000
  0.000   0.000   0.000   0.667   0.000   0.000   0.000   0.000
  0.000   0.000   0.000   0.000   0.667   0.000   0.000   0.000
  0.000   0.000   0.000   0.000   0.000   0.000   0.000   0.000
  0.000   0.000   0.000   0.000   0.000   0.000   0.000   0.000
  0.000   0.000   0.000   0.000   0.000   0.000   0.000   0.000


----------------------------------------- Iteration    1(   3)  ---------------------------------------


     EDDAV:  cpu time    0.1680: real time    0.3247
       DOS:  cpu time    0.0010: real time    0.0005
    --------------------------------------------
      LOOP:  cpu time    0.1710: real time    0.3272

 eigenvalue-minimisations  :   182
 total energy-change (2. order) :-0.3889776E+00  (-0.3885572E+00)
 number of electron       8.0000000 magnetization 
 augmentation part        8.0000000 magnetization 

 Free energy of the ion-electron system (eV)
  ---------------------------------------------------
  alpha Z        PSCENC =         5.09113229
  Ewald energy   TEWEN  =       551.15210716
  -Hartree energ DENC   =      -777.06226536
  -exchange      EXHF   =         0.00000000
  -V(xc)+E(xc)   XCENC  =        27.46742435
  PAW double counting   =        75.66288619      -77.96384553
  entropy T*S    EENTRO =        -0.00858019
  eigenvalues    EBANDS =      -117.75431244
  atomic energy  EATOM  =       294.25444774
  Solvation  Ediel_sol  =         0.00000000
  ---------------------------------------------------
  free energy    TOTEN  =       -19.16100579 eV

  energy without entropy =      -19.15242560  energy(sigma->0) =      -19.15814573


--------------------------------------------------------------------------------------------------------




 average (electrostatic) potential at core
  the test charge radii are     0.6991
  (the norm of the test charge is              1.0000)
       1 -62.8987       2 -62.8987
 
 
 
 E-fermi :  -5.0000     XC(G=0):  -3.9366     alpha+bet : -3.1363


 k-point     1 :       0.0000    0.0000    0.0000
  band No.  band energies     occupation 
      1     -25.0256      2.00000
      2     -12.1749      2.00000
      3      -9.7083      2.00000
      4      -9.2306      2.00000
      5       1.2661      0.00000
      6       2.0104      0.00000
      7       2.5877      0.00000
      8       2.5923      0.00000
      9       3.6369      0.00000
     10       5.5876      0.00000
     11       6.3339      0.00000
     12       6.4849      0.00000
     13       7.7016      0.00000
     14      12.5208      0.00000

 k-point     2 :       0.3333    0.0000    0.0000
  band No.  band energies     occupation 
      1     -22.5584      2.00000
      2     -15.5995      2.00000
      3     -12.0134      2.00000
      4      -9.3382      2.00000
      5      -0.2547     -0.00000
      6       1.9353      0.00000
      7       4.7244      0.00000
      8       6.0320      0.00000
      9       7.1839      0.00000
     10       9.7024      0.00000
     11       9.7844      0.00000
     12      10.4093      0.00000
     13      11.1453      0.00000
     14      13.7323      0.00000

 k-point     3 :       0.0000    0.3333    0.0000
  band No.  band energies     occupation 
      1     -22.5564      2.00000
      2     -15.5141      2.00000
      3     -12.1270      2.00000
      4      -9.3627      2.00000
      5      -0.1802     -0.00000
      6       1.8903      0.00000
      7       4.7254      0.00000
      8       6.0307      0.00000
      9       7.1839      0.00000
     10       9.6938      0.00000
     11       9.9186      0.00000
     12      10.3498      0.00000
     13      11.1610      0.00000
     14      13.6809      0.00000

 k-point     4 :       0.3333    0.3333    0.0000
  band No.  band energies     occupation 
      1     -18.5748      2.00000
      2     -18.3769      2.00000
      3     -16.3193      2.00000
      4      -5.1049      1.76621
      5      -4.8952      0.23379
      6       7.2130      0.00000
      7       7.7800      0.00000
      8       8.0858      0.00000
      9       9.8916      0.00000
     10      12.4696      0.00000
     11      12.5380      0.00000
     12      13.1455      0.00000
     13      13.1778      0.00000
     14      13.6495      0.00000

 k-point     5 :      -0.3333    0.3333    0.0000
  band No.  band energies     occupation 
      1     -22.5609      2.00000
      2     -15.6882      2.00000
      3     -11.8975      2.00000
      4      -9.3099      2.00000
      5      -0.3396     -0.00000
      6       2.0164      0.00000
      7       4.7230      0.00000
      8       6.0336      0.00000
      9       7.1838      0.00000
     10       9.6761      0.00000
     11       9.7131      0.00000
     12      10.4901      0.00000
     13      11.1295      0.00000
     14      13.8116      0.00000


--------------------------------------------------------------------------------------------------------


 soft charge-density along one line, spin component           1
         0         1         2         3         4         5         6         7         8         9
 total charge-density along one line
 
 pseudopotential strength for first ion, spin component:           1
 10.479   0.027  -0.001   0.000   0.000   0.001  -0.000  -0.000
  0.027  -0.001   0.000  -0.000  -0.000   0.000  -0.000  -0.000
 -0.001   0.000  -4.630   0.000   0.001  -0.003   0.000   0.000
  0.000  -0.000   0.000  -4.598  -0.000   0.000   0.002  -0.000
  0.000  -0.000   0.001  -0.000  -4.632   0.000  -0.000  -0.003
  0.001   0.000  -0.003   0.000   0.000  -0.776   0.000   0.000
 -0.000  -0.000   0.000   0.002  -0.000   0.000  -0.775  -0.000
 -0.000  -0.000   0.000  -0.000  -0.003   0.000  -0.000  -0.776
 total augmentation occupancy for first ion, spin component:           1
  2.000   0.000   0.000   0.000   0.000   0.000   0.000   0.000
  0.000   0.000   0.000   0.000   0.000   0.000   0.000   0.000
  0.000   0.000   0.667   0.000   0.000   0.000   0.000   0.000
  0.000   0.000   0.000   0.667   0.000   0.000   0.000   0.000
  0.000   0.000   0.000   0.000   0.667   0.000   0.000   0.000
  0.000   0.000   0.000   0.000   0.000   0.000   0.000   0.000
  0.000   0.000   0.000   0.000   0.000   0.000   0.000   0.000
  0.000   0.000   0.000   0.000   0.000   0.000   0.000   0.000


----------------------------------------- Iteration    1(   4)  ---------------------------------------


     EDDAV:  cpu time    0.1270: real time    0.2786
       DOS:  cpu time    0.0010: real time    0.0005
    --------------------------------------------
      LOOP:  cpu time    0.1280: real time    0.2809

 eigenvalue-minimisations  :   168
 total energy-change (2. order) :-0.4399053E-03  (-0.4399053E-03)
 number of electron       8.0000000 magnetization 
 augmentation part        8.0000000 magnetization 

 Free energy of the ion-electron system (eV)
  ---------------------------------------------------
  alpha Z        PSCENC =         5.09113229
  Ewald energy   TEWEN  =       551.15210716
  -Hartree energ DENC   =      -777.06226536
  -exchange      EXHF   =         0.00000000
  -V(xc)+E(xc)   XCENC  =        27.46742435
  PAW double counting   =        75.66288619      -77.96384553
  entropy T*S    EENTRO =        -0.00858142
  eigenvalues    EBANDS =      -117.75475111
  atomic energy  EATOM  =       294.25444774
  Solvation  Ediel_sol  =         0.00000000
  ---------------------------------------------------
  free energy    TOTEN  =       -19.16144570 eV

  energy without entropy =      -19.15286427  energy(sigma->0) =      -19.15858522


--------------------------------------------------------------------------------------------------------




 average (electrostatic) potential at core
  the test charge radii are     0.6991
  (the norm of the test charge is              1.0000)
       1 -62.8987       2 -62.8987
 
 
 
 E-fermi :  -5.0001     XC(G=0):  -3.9366     alpha+bet : -3.1363


 k-point     1 :       0.0000    0.0000    0.0000
  band No.  band energies     occupation 
      1     -25.0256      2.00000
      2     -12.1749      2.00000
      3      -9.7085      2.00000
      4      -9.2310      2.00000
      5       1.2661      0.00000
      6       2.0091      0.00000
      7       2.5877      0.00000
      8       2.5903      0.00000
      9       3.6369      0.00000
     10       5.5843      0.00000
     11       6.3330      0.00000
     12       6.4848      0.00000
     13       7.7016      0.00000
     14      12.5195      0.00000

 k-point     2 :       0.3333    0.0000    0.0000
  band No.  band energies     occupation 
      1     -22.5584      2.00000
      2     -15.5996      2.00000
      3     -12.0135      2.00000
      4      -9.3382      2.00000
      5      -0.2550     -0.00000
      6       1.9350      0.00000
      7       4.7243      0.00000
      8       6.0319      0.00000
      9       7.1839      0.00000
     10       9.7022      0.00000
     11       9.7767      0.00000
     12      10.4059      0.00000
     13      11.1451      0.00000
     14      13.7292      0.00000

 k-point     3 :       0.0000    0.3333    0.0000
  band No.  band energies     occupation 
      1     -22.5564      2.00000
      2     -15.5142      2.00000
      3     -12.1271      2.00000
      4      -9.3627      2.00000
      5      -0.1807     -0.00000
      6       1.8891      0.00000
      7       4.7254      0.00000
      8       6.0307      0.00000
      9       7.1839      0.00000
     10       9.6934      0.00000
     11       9.9134      0.00000
     12      10.3450      0.00000
     13      11.1602      0.00000
     14      13.6777      0.00000

 k-point     4 :       0.3333    0.3333    0.0000
  band No.  band energies     occupation 
      1     -18.5748      2.00000
      2     -18.3769      2.00000
      3     -16.3193      2.00000
      4      -5.1049      1.76619
      5      -4.8953      0.23381
      6       7.2127      0.00000
      7       7.7699      0.00000
      8       8.0699      0.00000
      9       9.8829      0.00000
     10      12.4451      0.00000
     11      12.5015      0.00000
     12      13.1346      0.00000
     13      13.1433      0.00000
     14      13.5262      0.00000

 k-point     5 :      -0.3333    0.3333    0.0000
  band No.  band energies     occupation 
      1     -22.5609      2.00000
      2     -15.6882      2.00000
      3     -11.8975      2.00000
      4      -9.3100      2.00000
      5      -0.3398     -0.00000
      6       2.0160      0.00000
      7       4.7230      0.00000
      8       6.0334      0.00000
      9       7.1837      0.00000
     10       9.5975      0.00000
     11       9.7122      0.00000
     12      10.4647      0.00000
     13      11.1281      0.00000
     14      13.7886      0.00000


--------------------------------------------------------------------------------------------------------


 soft charge-density along one line, spin component           1
         0         1         2         3         4         5         6         7         8         9
 total charge-density along one line
 
 pseudopotential strength for first ion, spin component:           1
 10.479   0.027  -0.001   0.000   0.000   0.001  -0.000  -0.000
  0.027  -0.001   0.000  -0.000  -0.000   0.000  -0.000  -0.000
 -0.001   0.000  -4.630   0.000   0.001  -0.003   0.000   0.000
  0.000  -0.000   0.000  -4.598  -0.000   0.000   0.002  -0.000
  0.000  -0.000   0.001  -0.000  -4.632   0.000  -0.000  -0.003
  0.001   0.000  -0.003   0.000   0.000  -0.776   0.000   0.000
 -0.000  -0.000   0.000   0.002  -0.000   0.000  -0.775  -0.000
 -0.000  -0.000   0.000  -0.000  -0.003   0.000  -0.000  -0.776
 total augmentation occupancy for first ion, spin component:           1
  2.000   0.000   0.000   0.000   0.000   0.000   0.000   0.000
  0.000   0.000   0.000   0.000   0.000   0.000   0.000   0.000
  0.000   0.000   0.667   0.000   0.000   0.000   0.000   0.000
  0.000   0.000   0.000   0.667   0.000   0.000   0.000   0.000
  0.000   0.000   0.000   0.000   0.667   0.000   0.000   0.000
  0.000   0.000   0.000   0.000   0.000   0.000   0.000   0.000
  0.000   0.000   0.000   0.000   0.000   0.000   0.000   0.000
  0.000   0.000   0.000   0.000   0.000   0.000   0.000   0.000


----------------------------------------- Iteration    1(   5)  ---------------------------------------


     EDDAV:  cpu time    0.2690: real time    0.4209
       DOS:  cpu time    0.0020: real time    0.0024
    CHARGE:  cpu time    0.0050: real time    0.0140
    MIXING:  cpu time    0.0010: real time    0.0005
    --------------------------------------------
      LOOP:  cpu time    0.2770: real time    0.4398

 eigenvalue-minimisations  :   168
 total energy-change (2. order) :-0.1751935E-05  (-0.1752248E-05)
 number of electron       8.0000000 magnetization 
 augmentation part        0.2144444 magnetization 

 Broyden mixing:
  rms(total) = 0.55028E+00    rms(broyden)= 0.55021E+00
  rms(prec ) = 0.67720E+00
  weight for this iteration     100.00

 Free energy of the ion-electron system (eV)
  ---------------------------------------------------
  alpha Z        PSCENC =         5.09113229
  Ewald energy   TEWEN  =       551.15210716
  -Hartree energ DENC   =      -777.06226536
  -exchange      EXHF   =         0.00000000
  -V(xc)+E(xc)   XCENC  =        27.46742435
  PAW double counting   =        75.66288619      -77.96384553
  entropy T*S    EENTRO =        -0.00858142
  eigenvalues    EBANDS =      -117.75475286
  atomic energy  EATOM  =       294.25444774
  Solvation  Ediel_sol  =         0.00000000
  ---------------------------------------------------
  free energy    TOTEN  =       -19.16144745 eV

  energy without entropy =      -19.15286603  energy(sigma->0) =      -19.15858697


--------------------------------------------------------------------------------------------------------




 average (electrostatic) potential at core
  the test charge radii are     0.6991
  (the norm of the test charge is              1.0000)
       1 -62.8987       2 -62.8987
 
 
 
 E-fermi :  -5.0001     XC(G=0):  -3.9366     alpha+bet : -3.1363


 k-point     1 :       0.0000    0.0000    0.0000
  band No.  band energies     occupation 
      1     -25.0256      2.00000
      2     -12.1749      2.00000
      3      -9.7085      2.00000
      4      -9.2310      2.00000
      5       1.2661      0.00000
      6       2.0091      0.00000
      7       2.5877      0.00000
      8       2.5903      0.00000
      9       3.6369      0.00000
     10       5.5842      0.00000
     11       6.3330      0.00000
     12       6.4848      0.00000
     13       7.7016      0.00000
     14      12.5194      0.00000

 k-point     2 :       0.3333    0.0000    0.0000
  band No.  band energies     occupation 
      1     -22.5584      2.00000
      2     -15.5996      2.00000
      3     -12.0135      2.00000
      4      -9.3382      2.00000
      5      -0.2550     -0.00000
      6       1.9350      0.00000
      7       4.7243      0.00000
      8       6.0319      0.00000
      9       7.1839      0.00000
     10       9.7022      0.00000
     11       9.7761      0.00000
     12      10.4055      0.00000
     13      11.1451      0.00000
     14      13.7290      0.00000

 k-point     3 :       0.0000    0.3333    0.0000
  band No.  band energies     occupation 
      1     -22.5564      2.00000
      2     -15.5142      2.00000
      3     -12.1271      2.00000
      4      -9.3627      2.00000
      5      -0.1807     -0.00000
      6       1.8891      0.00000
      7       4.7254      0.00000
      8       6.0307      0.00000
      9       7.1839      0.00000
     10       9.6934      0.00000
     11       9.9133      0.00000
     12      10.3450      0.00000
     13      11.1602      0.00000
     14      13.6776      0.00000

 k-point     4 :       0.3333    0.3333    0.0000
  band No.  band energies     occupation 
      1     -18.5748      2.00000
      2     -18.3769      2.00000
      3     -16.3193      2.00000
      4      -5.1049      1.76619
      5      -4.8953      0.23381
      6       7.2127      0.00000
      7       7.7699      0.00000
      8       8.0698      0.00000
      9       9.8829      0.00000
     10      12.4440      0.00000
     11      12.5005      0.00000
     12      13.1335      0.00000
     13      13.1409      0.00000
     14      13.5130      0.00000

 k-point     5 :      -0.3333    0.3333    0.0000
  band No.  band energies     occupation 
      1     -22.5609      2.00000
      2     -15.6882      2.00000
      3     -11.8975      2.00000
      4      -9.3100      2.00000
      5      -0.3398     -0.00000
      6       2.0160      0.00000
      7       4.7230      0.00000
      8       6.0334      0.00000
      9       7.1837      0.00000
     10       9.5966      0.00000
     11       9.7122      0.00000
     12      10.4642      0.00000
     13      11.1281      0.00000
     14      13.7874      0.00000


--------------------------------------------------------------------------------------------------------


 soft charge-density along one line, spin component           1
         0         1         2         3         4         5         6         7         8         9
 total charge-density along one line
 
 pseudopotential strength for first ion, spin component:           1
 10.479   0.027  -0.001   0.000   0.000   0.001  -0.000  -0.000
  0.027  -0.001   0.000  -0.000  -0.000   0.000  -0.000  -0.000
 -0.001   0.000  -4.630   0.000   0.001  -0.003   0.000   0.000
  0.000  -0.000   0.000  -4.598  -0.000   0.000   0.002  -0.000
  0.000  -0.000   0.001  -0.000  -4.632   0.000  -0.000  -0.003
  0.001   0.000  -0.003   0.000   0.000  -0.776   0.000   0.000
 -0.000  -0.000   0.000   0.002  -0.000   0.000  -0.775  -0.000
 -0.000  -0.000   0.000  -0.000  -0.003   0.000  -0.000  -0.776
 total augmentation occupancy for first ion, spin component:           1
  1.494  -0.938  -0.009   0.000   0.006  -0.003  -0.000   0.002
 -0.938   0.739   0.008  -0.000  -0.006   0.003   0.000  -0.002
 -0.009   0.008   1.282   0.000  -0.005   0.204  -0.000  -0.002
  0.000  -0.000   0.000   1.055  -0.000   0.000   0.077   0.000
  0.006  -0.006  -0.005  -0.000   1.296  -0.002  -0.000   0.209
 -0.003   0.003   0.204   0.000  -0.002   0.038  -0.000  -0.000
 -0.000   0.000  -0.000   0.077  -0.000  -0.000   0.008  -0.000
  0.002  -0.002  -0.002   0.000   0.209  -0.000  -0.000   0.039


----------------------------------------- Iteration    1(   6)  ---------------------------------------


    POTLOK:  cpu time    0.0050: real time    0.0045
    SETDIJ:  cpu time    0.0030: real time    0.0030
     EDDAV:  cpu time    0.1150: real time    0.3163
       DOS:  cpu time    0.0010: real time    0.0005
    CHARGE:  cpu time    0.0040: real time    0.0038
    MIXING:  cpu time    0.0000: real time    0.0006
    --------------------------------------------
      LOOP:  cpu time    0.1280: real time    0.3305

 eigenvalue-minimisations  :   182
 total energy-change (2. order) : 0.8895854E+00  (-0.8531897E-01)
 number of electron       8.0000000 magnetization 
 augmentation part        0.2054143 magnetization 

 Broyden mixing:
  rms(total) = 0.29171E+00    rms(broyden)= 0.29168E+00
  rms(prec ) = 0.36178E+00
  weight for this iteration     100.00

 eigenvalues of (default mixing * dielectric matrix)
  average eigenvalue GAMMA=   2.0588
  2.0588

 Free energy of the ion-electron system (eV)
  ---------------------------------------------------
  alpha Z        PSCENC =         5.09113229
  Ewald energy   TEWEN  =       551.15210716
  -Hartree energ DENC   =      -787.57143919
  -exchange      EXHF   =         0.00000000
  -V(xc)+E(xc)   XCENC  =        27.96079667
  PAW double counting   =       102.27321993     -104.74926339
  entropy T*S    EENTRO =        -0.01227744
  eigenvalues    EBANDS =      -106.67058580
  atomic energy  EATOM  =       294.25444774
  Solvation  Ediel_sol  =         0.00000000
  ---------------------------------------------------
  free energy    TOTEN  =       -18.27186203 eV

  energy without entropy =      -18.25958459  energy(sigma->0) =      -18.26776955


--------------------------------------------------------------------------------------------------------




 average (electrostatic) potential at core
  the test charge radii are     0.6991
  (the norm of the test charge is              1.0000)
       1 -60.5644       2 -60.5644
 
 
 
 E-fermi :  -3.9243     XC(G=0):  -4.1645     alpha+bet : -3.1363


 k-point     1 :       0.0000    0.0000    0.0000
  band No.  band energies     occupation 
      1     -23.6872      2.00000
      2     -11.2537      2.00000
      3      -7.9453      2.00000
      4      -7.5448      2.00000
      5       1.0522     -0.00000
      6       2.2706      0.00000
      7       3.1023      0.00000
      8       3.5054      0.00000
      9       4.0328      0.00000
     10       6.0895      0.00000
     11       6.9614      0.00000
     12       7.3643      0.00000
     13       7.7412      0.00000
     14      12.2551      0.00000

 k-point     2 :       0.3333    0.0000    0.0000
  band No.  band energies     occupation 
      1     -21.1754      2.00000
      2     -14.0781      2.00000
      3     -10.3680      2.00000
      4      -8.3630      2.00000
      5       0.8709     -0.00000
      6       3.2159      0.00000
      7       4.5552      0.00000
      8       5.7623      0.00000
      9       6.6490      0.00000
     10       9.3795      0.00000
     11      10.7917      0.00000
     12      11.4312      0.00000
     13      11.7258      0.00000
     14      13.8446      0.00000

 k-point     3 :       0.0000    0.3333    0.0000
  band No.  band energies     occupation 
      1     -21.1720      2.00000
      2     -14.0176      2.00000
      3     -10.4574      2.00000
      4      -8.3833      2.00000
      5       0.9342     -0.00000
      6       3.1929      0.00000
      7       4.5558      0.00000
      8       5.7629      0.00000
      9       6.6493      0.00000
     10       9.3747      0.00000
     11      10.7861      0.00000
     12      11.5608      0.00000
     13      11.6934      0.00000
     14      13.8029      0.00000

 k-point     4 :       0.3333    0.3333    0.0000
  band No.  band energies     occupation 
      1     -17.0477      2.00000
      2     -16.9396      2.00000
      3     -14.8697      2.00000
      4      -4.0139      1.68050
      5      -3.8346      0.31950
      6       7.5030      0.00000
      7       9.0097      0.00000
      8       9.2833      0.00000
      9      10.3989      0.00000
     10      12.4116      0.00000
     11      12.4890      0.00000
     12      12.8442      0.00000
     13      12.8464      0.00000
     14      13.2136      0.00000

 k-point     5 :      -0.3333    0.3333    0.0000
  band No.  band energies     occupation 
      1     -21.1793      2.00000
      2     -14.1425      2.00000
      3     -10.2743      2.00000
      4      -8.3400      2.00000
      5       0.7997     -0.00000
      6       3.2651      0.00000
      7       4.5546      0.00000
      8       5.7619      0.00000
      9       6.6485      0.00000
     10       9.3848      0.00000
     11      10.7960      0.00000
     12      11.2594      0.00000
     13      11.7579      0.00000
     14      13.8908      0.00000


--------------------------------------------------------------------------------------------------------


 soft charge-density along one line, spin component           1
         0         1         2         3         4         5         6         7         8         9
 total charge-density along one line
 
 pseudopotential strength for first ion, spin component:           1
 10.364   0.023  -0.000   0.000   0.000   0.000  -0.000  -0.000
  0.023  -0.001  -0.000  -0.000   0.000   0.000  -0.000  -0.000
 -0.000  -0.000  -4.486   0.000   0.000  -0.012   0.000   0.000
  0.000  -0.000   0.000  -4.465  -0.000   0.000  -0.008  -0.000
  0.000   0.000   0.000  -0.000  -4.487   0.000  -0.000  -0.012
  0.000   0.000  -0.012   0.000   0.000  -0.774   0.000   0.000
 -0.000  -0.000   0.000  -0.008  -0.000   0.000  -0.774  -0.000
 -0.000  -0.000   0.000  -0.000  -0.012   0.000  -0.000  -0.774
 total augmentation occupancy for first ion, spin component:           1
  1.468  -1.058  -0.007  -0.000   0.005  -0.002   0.000   0.002
 -1.058   0.916   0.006   0.000  -0.003   0.002   0.000  -0.001
 -0.007   0.006   1.250   0.000  -0.005   0.214  -0.000  -0.001
 -0.000   0.000   0.000   0.996   0.000  -0.000   0.093  -0.000
  0.005  -0.003  -0.005   0.000   1.265  -0.002  -0.000   0.219
 -0.002   0.002   0.214  -0.000  -0.002   0.042  -0.000  -0.000
  0.000   0.000  -0.000   0.093  -0.000  -0.000   0.011  -0.000
  0.002  -0.001  -0.001  -0.000   0.219  -0.000  -0.000   0.044


----------------------------------------- Iteration    1(   7)  ---------------------------------------


    POTLOK:  cpu time    0.0050: real time    0.0050
    SETDIJ:  cpu time    0.0030: real time    0.0026
     EDDAV:  cpu time    0.1990: real time    0.3624
       DOS:  cpu time    0.0010: real time    0.0005
    CHARGE:  cpu time    0.0120: real time    0.0128
    MIXING:  cpu time    0.0010: real time    0.0003
    --------------------------------------------
      LOOP:  cpu time    0.2220: real time    0.3854

 eigenvalue-minimisations  :   196
 total energy-change (2. order) : 0.3427198E+00  (-0.1023634E+00)
 number of electron       8.0000000 magnetization 
 augmentation part        0.1955529 magnetization 

 Broyden mixing:
  rms(total) = 0.49996E-01    rms(broyden)= 0.49813E-01
  rms(prec ) = 0.67188E-01
  weight for this iteration     100.00

 eigenvalues of (default mixing * dielectric matrix)
  average eigenvalue GAMMA=   2.2595
  2.1026  2.4165

 Free energy of the ion-electron system (eV)
  ---------------------------------------------------
  alpha Z        PSCENC =         5.09113229
  Ewald energy   TEWEN  =       551.15210716
  -Hartree energ DENC   =      -800.90269211
  -exchange      EXHF   =         0.00000000
  -V(xc)+E(xc)   XCENC  =        28.57772748
  PAW double counting   =       136.47539250     -139.10184857
  entropy T*S    EENTRO =        -0.01493545
  eigenvalues    EBANDS =       -93.46047330
  atomic energy  EATOM  =       294.25444774
  Solvation  Ediel_sol  =         0.00000000
  ---------------------------------------------------
  free energy    TOTEN  =       -17.92914225 eV

  energy without entropy =      -17.91420681  energy(sigma->0) =      -17.92416377


--------------------------------------------------------------------------------------------------------




 average (electrostatic) potential at core
  the test charge radii are     0.6991
  (the norm of the test charge is              1.0000)
       1 -58.0058       2 -58.0056
 
 
 
 E-fermi :  -2.6459     XC(G=0):  -4.1964     alpha+bet : -3.1363


 k-point     1 :       0.0000    0.0000    0.0000
  band No.  band energies     occupation 
      1     -22.0687      2.00000
      2     -10.1351      2.00000
      3      -5.8825      2.00000
      4      -5.5516      2.00000
      5       0.8944     -0.00000
      6       2.0095     -0.00000
      7       2.8917      0.00000
      8       5.2740      0.00000
      9       5.7556      0.00000
     10       5.9562      0.00000
     11       7.1702      0.00000
     12       8.5681      0.00000
     13       9.3923      0.00000
     14      12.1638      0.00000

 k-point     2 :       0.3333    0.0000    0.0000
  band No.  band energies     occupation 
      1     -19.5122      2.00000
      2     -12.2703      2.00000
      3      -8.4237      2.00000
      4      -7.1903      2.00000
      5       2.1932     -0.00000
      6       4.3882      0.00000
      7       4.8194      0.00000
      8       5.5426      0.00000
      9       6.4412      0.00000
     10       9.3069      0.00000
     11      10.6266      0.00000
     12      13.0269      0.00000
     13      13.3613      0.00000
     14      14.1563      0.00000

 k-point     3 :       0.0000    0.3333    0.0000
  band No.  band energies     occupation 
      1     -19.5081      2.00000
      2     -12.2303      2.00000
      3      -8.4920      2.00000
      4      -7.2074      2.00000
      5       2.2477     -0.00000
      6       4.3898      0.00000
      7       4.8127      0.00000
      8       5.5445      0.00000
      9       6.4414      0.00000
     10       9.3048      0.00000
     11      10.6265      0.00000
     12      13.0076      0.00000
     13      13.4850      0.00000
     14      14.1236      0.00000

 k-point     4 :       0.3333    0.3333    0.0000
  band No.  band energies     occupation 
      1     -15.2494      2.00000
      2     -15.2157      2.00000
      3     -13.1213      2.00000
      4      -2.7241      1.60917
      5      -2.5677      0.39083
      6       7.9966      0.00000
      7      10.1625      0.00000
      8      10.3497      0.00000
      9      10.9058      0.00000
     10      12.5488      0.00000
     11      12.6189      0.00000
     12      12.6326      0.00000
     13      12.6547      0.00000
     14      13.1144      0.00000

 k-point     5 :      -0.3333    0.3333    0.0000
  band No.  band energies     occupation 
      1     -19.5170      2.00000
      2     -12.3135      2.00000
      3      -8.3514      2.00000
      4      -7.1712      2.00000
      5       2.1328     -0.00000
      6       4.3875      0.00000
      7       4.8466      0.00000
      8       5.5406      0.00000
      9       6.4411      0.00000
     10       9.3092      0.00000
     11      10.6264      0.00000
     12      13.0436      0.00000
     13      13.1969      0.00000
     14      14.1922      0.00000


--------------------------------------------------------------------------------------------------------


 soft charge-density along one line, spin component           1
         0         1         2         3         4         5         6         7         8         9
 total charge-density along one line
 
 pseudopotential strength for first ion, spin component:           1
 10.225   0.019   0.001  -0.000  -0.000  -0.000   0.000   0.000
  0.019  -0.002  -0.000   0.000   0.000  -0.000   0.000   0.000
  0.001  -0.000  -4.332  -0.000   0.000  -0.019  -0.000   0.000
 -0.000   0.000  -0.000  -4.325   0.000  -0.000  -0.016  -0.000
 -0.000   0.000   0.000   0.000  -4.332   0.000  -0.000  -0.019
 -0.000  -0.000  -0.019  -0.000   0.000  -0.772   0.000  -0.000
  0.000   0.000  -0.000  -0.016  -0.000   0.000  -0.772   0.000
  0.000   0.000   0.000  -0.000  -0.019  -0.000   0.000  -0.772
 total augmentation occupancy for first ion, spin component:           1
  1.441  -1.162  -0.006  -0.000   0.004  -0.002   0.000   0.002
 -1.162   1.092   0.007   0.000  -0.005   0.003   0.000  -0.002
 -0.006   0.007   1.217   0.000  -0.005   0.224   0.000  -0.001
 -0.000   0.000   0.000   0.932  -0.000   0.000   0.107   0.000
  0.004  -0.005  -0.005  -0.000   1.232  -0.001  -0.000   0.229
 -0.002   0.003   0.224   0.000  -0.001   0.047   0.000  -0.000
  0.000   0.000   0.000   0.107  -0.000   0.000   0.014  -0.000
  0.002  -0.002  -0.001   0.000   0.229  -0.000  -0.000   0.048


----------------------------------------- Iteration    1(   8)  ---------------------------------------


    POTLOK:  cpu time    0.0050: real time    0.0045
    SETDIJ:  cpu time    0.0020: real time    0.0022
     EDDAV:  cpu time    0.2080: real time    0.4089
       DOS:  cpu time    0.0010: real time    0.0002
    CHARGE:  cpu time    0.0040: real time    0.0046
    MIXING:  cpu time    0.0010: real time    0.0003
    --------------------------------------------
      LOOP:  cpu time    0.2210: real time    0.4226

 eigenvalue-minimisations  :   210
 total energy-change (2. order) : 0.9800764E-02  (-0.7404063E-03)
 number of electron       8.0000000 magnetization 
 augmentation part        0.1954159 magnetization 

 Broyden mixing:
  rms(total) = 0.77523E-02    rms(broyden)= 0.77001E-02
  rms(prec ) = 0.26077E-01
  weight for this iteration     100.00

 eigenvalues of (default mixing * dielectric matrix)
  average eigenvalue GAMMA=   2.0200
  1.3380  2.6729  2.0490

 Free energy of the ion-electron system (eV)
  ---------------------------------------------------
  alpha Z        PSCENC =         5.09113229
  Ewald energy   TEWEN  =       551.15210716
  -Hartree energ DENC   =      -803.54091807
  -exchange      EXHF   =         0.00000000
  -V(xc)+E(xc)   XCENC  =        28.62144972
  PAW double counting   =       138.02978662     -140.60146679
  entropy T*S    EENTRO =        -0.01405577
  eigenvalues    EBANDS =       -90.91182439
  atomic energy  EATOM  =       294.25444774
  Solvation  Ediel_sol  =         0.00000000
  ---------------------------------------------------
  free energy    TOTEN  =       -17.91934149 eV

  energy without entropy =      -17.90528572  energy(sigma->0) =      -17.91465623


--------------------------------------------------------------------------------------------------------




 average (electrostatic) potential at core
  the test charge radii are     0.6991
  (the norm of the test charge is              1.0000)
       1 -57.8174       2 -57.8184
 
 
 
 E-fermi :  -2.3528     XC(G=0):  -4.1940     alpha+bet : -3.1363


 k-point     1 :       0.0000    0.0000    0.0000
  band No.  band energies     occupation 
      1     -21.7377      2.00000
      2      -9.8390      2.00000
      3      -5.5704      2.00000
      4      -5.2228      2.00000
      5       0.9470     -0.00000
      6       2.0643     -0.00000
      7       2.6951     -0.00000
      8       5.5935      0.00000
      9       5.8780      0.00000
     10       6.0886      0.00000
     11       7.1233      0.00000
     12       8.8622      0.00000
     13       9.6951      0.00000
     14      12.1499      0.00000

 k-point     2 :       0.3333    0.0000    0.0000
  band No.  band energies     occupation 
      1     -19.1827      2.00000
      2     -11.9432      2.00000
      3      -8.1001      2.00000
      4      -6.8955      2.00000
      5       2.4878     -0.00000
      6       4.4730      0.00000
      7       5.1371      0.00000
      8       5.6092      0.00000
      9       6.2397      0.00000
     10       9.2436      0.00000
     11      10.5853      0.00000
     12      13.2909      0.00000
     13      13.6743      0.00000
     14      14.3106      0.00000

 k-point     3 :       0.0000    0.3333    0.0000
  band No.  band energies     occupation 
      1     -19.1790      2.00000
      2     -11.8990      2.00000
      3      -8.1721      2.00000
      4      -6.9134      2.00000
      5       2.5448     -0.00000
      6       4.4739      0.00000
      7       5.1259      0.00000
      8       5.6111      0.00000
      9       6.2396      0.00000
     10       9.2420      0.00000
     11      10.5852      0.00000
     12      13.2751      0.00000
     13      13.7994      0.00000
     14      14.2789      0.00000

 k-point     4 :       0.3333    0.3333    0.0000
  band No.  band energies     occupation 
      1     -14.9372      2.00000
      2     -14.8822      2.00000
      3     -12.7803      2.00000
      4      -2.4348      1.63387
      5      -2.2707      0.36613
      6       8.3019      0.00000
      7      10.3904      0.00000
      8      10.5733      0.00000
      9      11.1413      0.00000
     10      12.4778      0.00000
     11      12.5640      0.00000
     12      12.6782      0.00000
     13      12.7008      0.00000
     14      12.9063      0.00000

 k-point     5 :      -0.3333    0.3333    0.0000
  band No.  band energies     occupation 
      1     -19.1871      2.00000
      2     -11.9920      2.00000
      3      -8.0229      2.00000
      4      -6.8753      2.00000
      5       2.4240     -0.00000
      6       4.4724      0.00000
      7       5.1720      0.00000
      8       5.6072      0.00000
      9       6.2401      0.00000
     10       9.2455      0.00000
     11      10.5852      0.00000
     12      13.3040      0.00000
     13      13.5078      0.00000
     14      14.3457      0.00000


--------------------------------------------------------------------------------------------------------


 soft charge-density along one line, spin component           1
         0         1         2         3         4         5         6         7         8         9
 total charge-density along one line
 
 pseudopotential strength for first ion, spin component:           1
 10.204   0.018   0.000   0.000  -0.000  -0.000  -0.000   0.000
  0.018  -0.002  -0.000  -0.000   0.000  -0.000  -0.000   0.000
  0.000  -0.000  -4.324  -0.000   0.000  -0.017  -0.000   0.000
  0.000  -0.000  -0.000  -4.319   0.000  -0.000  -0.014   0.000
 -0.000   0.000   0.000   0.000  -4.324   0.000   0.000  -0.017
 -0.000  -0.000  -0.017  -0.000   0.000  -0.772  -0.000  -0.000
 -0.000  -0.000  -0.000  -0.014   0.000  -0.000  -0.772   0.000
  0.000   0.000   0.000   0.000  -0.017  -0.000   0.000  -0.772
 total augmentation occupancy for first ion, spin component:           1
  1.442  -1.148  -0.006  -0.000   0.004  -0.003   0.000   0.002
 -1.148   1.070   0.009  -0.000  -0.007   0.003  -0.000  -0.002
 -0.006   0.009   1.218   0.000  -0.005   0.223   0.000  -0.001
 -0.000  -0.000   0.000   0.930  -0.000   0.000   0.106  -0.000
  0.004  -0.007  -0.005  -0.000   1.233  -0.001  -0.000   0.228
 -0.003   0.003   0.223   0.000  -0.001   0.047   0.000  -0.000
  0.000  -0.000   0.000   0.106  -0.000   0.000   0.014   0.000
  0.002  -0.002  -0.001  -0.000   0.228  -0.000   0.000   0.048


----------------------------------------- Iteration    1(   9)  ---------------------------------------


    POTLOK:  cpu time    0.0050: real time    0.0045
    SETDIJ:  cpu time    0.0020: real time    0.0023
     EDDAV:  cpu time    0.2050: real time    0.3571
       DOS:  cpu time    0.0010: real time    0.0010
    CHARGE:  cpu time    0.0040: real time    0.0044
    MIXING:  cpu time    0.0010: real time    0.0006
    --------------------------------------------
      LOOP:  cpu time    0.2180: real time    0.3716

 eigenvalue-minimisations  :   252
 total energy-change (2. order) : 0.2020995E-02  (-0.1231189E-03)
 number of electron       8.0000000 magnetization 
 augmentation part        0.1951505 magnetization 

 Broyden mixing:
  rms(total) = 0.67761E-02    rms(broyden)= 0.67697E-02
  rms(prec ) = 0.20129E-01
  weight for this iteration     100.00

 eigenvalues of (default mixing * dielectric matrix)
  average eigenvalue GAMMA=   1.9493
  2.8072  2.2330  1.8871  0.8699

 Free energy of the ion-electron system (eV)
  ---------------------------------------------------
  alpha Z        PSCENC =         5.09113229
  Ewald energy   TEWEN  =       551.15210716
  -Hartree energ DENC   =      -804.79418768
  -exchange      EXHF   =         0.00000000
  -V(xc)+E(xc)   XCENC  =        28.64514775
  PAW double counting   =       138.31654431     -140.88602228
  entropy T*S    EENTRO =        -0.01423791
  eigenvalues    EBANDS =       -89.68225188
  atomic energy  EATOM  =       294.25444774
  Solvation  Ediel_sol  =         0.00000000
  ---------------------------------------------------
  free energy    TOTEN  =       -17.91732049 eV

  energy without entropy =      -17.90308258  energy(sigma->0) =      -17.91257452


--------------------------------------------------------------------------------------------------------




 average (electrostatic) potential at core
  the test charge radii are     0.6991
  (the norm of the test charge is              1.0000)
       1 -57.6627       2 -57.6599
 
 
 
 E-fermi :  -2.2094     XC(G=0):  -4.1561     alpha+bet : -3.1363


 k-point     1 :       0.0000    0.0000    0.0000
  band No.  band energies     occupation 
      1     -21.5822      2.00000
      2      -9.7005      2.00000
      3      -5.4077      2.00000
      4      -5.0642      2.00000
      5       0.9823     -0.00000
      6       2.1190     -0.00000
      7       2.6658     -0.00000
      8       5.7519      0.00000
      9       5.8804      0.00000
     10       6.2441      0.00000
     11       7.1723      0.00000
     12       9.0142      0.00000
     13       9.8486      0.00000
     14      12.1917      0.00000

 k-point     2 :       0.3333    0.0000    0.0000
  band No.  band energies     occupation 
      1     -19.0266      2.00000
      2     -11.7852      2.00000
      3      -7.9402      2.00000
      4      -6.7553      2.00000
      5       2.6314     -0.00000
      6       4.5161      0.00000
      7       5.2869      0.00000
      8       5.6658      0.00000
      9       6.2114      0.00000
     10       9.2541      0.00000
     11      10.6356      0.00000
     12      13.4128      0.00000
     13      13.8326      0.00000
     14      14.3857      0.00000

 k-point     3 :       0.0000    0.3333    0.0000
  band No.  band energies     occupation 
      1     -19.0228      2.00000
      2     -11.7420      2.00000
      3      -8.0114      2.00000
      4      -6.7730      2.00000
      5       2.6879     -0.00000
      6       4.5169      0.00000
      7       5.2769      0.00000
      8       5.6678      0.00000
      9       6.2112      0.00000
     10       9.2526      0.00000
     11      10.6355      0.00000
     12      13.3977      0.00000
     13      13.9575      0.00000
     14      14.3546      0.00000

 k-point     4 :       0.3333    0.3333    0.0000
  band No.  band energies     occupation 
      1     -14.7777      2.00000
      2     -14.7278      2.00000
      3     -12.6218      2.00000
      4      -2.2907      1.62885
      5      -2.1282      0.37115
      6       8.4123      0.00000
      7      10.4974      0.00000
      8      10.6758      0.00000
      9      11.2227      0.00000
     10      12.4916      0.00000
     11      12.5726      0.00000
     12      12.7306      0.00000
     13      12.7554      0.00000
     14      12.8879      0.00000

 k-point     5 :      -0.3333    0.3333    0.0000
  band No.  band energies     occupation 
      1     -19.0311      2.00000
      2     -11.8326      2.00000
      3      -7.8644      2.00000
      4      -6.7354      2.00000
      5       2.5684     -0.00000
      6       4.5153      0.00000
      7       5.3198      0.00000
      8       5.6638      0.00000
      9       6.2121      0.00000
     10       9.2557      0.00000
     11      10.6354      0.00000
     12      13.4256      0.00000
     13      13.6666      0.00000
     14      14.4201      0.00000


--------------------------------------------------------------------------------------------------------


 soft charge-density along one line, spin component           1
         0         1         2         3         4         5         6         7         8         9
 total charge-density along one line
 
 pseudopotential strength for first ion, spin component:           1
 10.194   0.018   0.000   0.000  -0.000  -0.000  -0.000   0.000
  0.018  -0.002  -0.000  -0.000   0.000  -0.000  -0.000   0.000
  0.000  -0.000  -4.315  -0.000   0.000  -0.017  -0.000   0.000
  0.000  -0.000  -0.000  -4.311   0.000  -0.000  -0.014   0.000
 -0.000   0.000   0.000   0.000  -4.316   0.000   0.000  -0.017
 -0.000  -0.000  -0.017  -0.000   0.000  -0.772  -0.000  -0.000
 -0.000  -0.000  -0.000  -0.014   0.000  -0.000  -0.772   0.000
  0.000   0.000   0.000   0.000  -0.017  -0.000   0.000  -0.772
 total augmentation occupancy for first ion, spin component:           1
  1.442  -1.145  -0.006  -0.000   0.004  -0.002   0.000   0.002
 -1.145   1.067   0.009  -0.000  -0.006   0.003  -0.000  -0.002
 -0.006   0.009   1.218   0.000  -0.005   0.223  -0.000  -0.001
 -0.000  -0.000   0.000   0.930  -0.000   0.000   0.106  -0.000
  0.004  -0.006  -0.005  -0.000   1.232  -0.001  -0.000   0.228
 -0.002   0.003   0.223   0.000  -0.001   0.047  -0.000  -0.000
  0.000  -0.000  -0.000   0.106  -0.000  -0.000   0.014  -0.000
  0.002  -0.002  -0.001  -0.000   0.228  -0.000  -0.000   0.048


----------------------------------------- Iteration    1(  10)  ---------------------------------------


    POTLOK:  cpu time    0.0050: real time    0.0050
    SETDIJ:  cpu time    0.0030: real time    0.0028
     EDDAV:  cpu time    0.1310: real time    0.2772
       DOS:  cpu time    0.0010: real time    0.0008
    CHARGE:  cpu time    0.0040: real time    0.0043
    MIXING:  cpu time    0.0010: real time    0.0006
    --------------------------------------------
      LOOP:  cpu time    0.1450: real time    0.2926

 eigenvalue-minimisations  :   154
 total energy-change (2. order) : 0.1765347E-02  (-0.2008210E-03)
 number of electron       8.0000000 magnetization 
 augmentation part        0.1949529 magnetization 

 Broyden mixing:
  rms(total) = 0.79058E-02    rms(broyden)= 0.78905E-02
  rms(prec ) = 0.13122E-01
  weight for this iteration     100.00

 eigenvalues of (default mixing * dielectric matrix)
  average eigenvalue GAMMA=   1.8152
  3.2097  2.4893  1.9688  0.9726  0.4357

 Free energy of the ion-electron system (eV)
  ---------------------------------------------------
  alpha Z        PSCENC =         5.09113229
  Ewald energy   TEWEN  =       551.15210716
  -Hartree energ DENC   =      -806.90122704
  -exchange      EXHF   =         0.00000000
  -V(xc)+E(xc)   XCENC  =        28.66812852
  PAW double counting   =       137.42883078     -140.00106944
  entropy T*S    EENTRO =        -0.01453362
  eigenvalues    EBANDS =       -87.59337156
  atomic energy  EATOM  =       294.25444774
  Solvation  Ediel_sol  =         0.00000000
  ---------------------------------------------------
  free energy    TOTEN  =       -17.91555515 eV

  energy without entropy =      -17.90102153  energy(sigma->0) =      -17.91071061


--------------------------------------------------------------------------------------------------------




 average (electrostatic) potential at core
  the test charge radii are     0.6991
  (the norm of the test charge is              1.0000)
       1 -57.3819       2 -57.4016
 
 
 
 E-fermi :  -1.9542     XC(G=0):  -3.9835     alpha+bet : -3.1363


 k-point     1 :       0.0000    0.0000    0.0000
  band No.  band energies     occupation 
      1     -21.3190      2.00000
      2      -9.4518      2.00000
      3      -5.1399      2.00000
      4      -4.8025      2.00000
      5       1.1660     -0.00000
      6       2.4037     -0.00000
      7       2.6712     -0.00000
      8       5.9569      0.00000
      9       6.0188      0.00000
     10       6.5064      0.00000
     11       7.4098      0.00000
     12       9.2787      0.00000
     13      10.1130      0.00000
     14      12.4204      0.00000

 k-point     2 :       0.3333    0.0000    0.0000
  band No.  band energies     occupation 
      1     -18.7631      2.00000
      2     -11.5210      2.00000
      3      -7.6755      2.00000
      4      -6.5043      2.00000
      5       2.8867     -0.00000
      6       4.7091      0.00000
      7       5.5412      0.00000
      8       5.9487      0.00000
      9       6.2163      0.00000
     10       9.3404      0.00000
     11      10.8772      0.00000
     12      13.6490      0.00000
     13      14.0976      0.00000
     14      14.6033      0.00000

 k-point     3 :       0.0000    0.3333    0.0000
  band No.  band energies     occupation 
      1     -18.7592      2.00000
      2     -11.4793      2.00000
      3      -7.7452      2.00000
      4      -6.5217      2.00000
      5       2.9424     -0.00000
      6       4.7099      0.00000
      7       5.5336      0.00000
      8       5.9506      0.00000
      9       6.2157      0.00000
     10       9.3392      0.00000
     11      10.8772      0.00000
     12      13.6338      0.00000
[...]


   POT+DIJ:  cpu time    0.0160: real time    0.0161
    HAMIL1:  cpu time    0.0090: real time    0.0320
    LRDIAG:  cpu time    0.0040: real time    0.0044
    LRDIIS:  cpu time    0.0210: real time    0.0263
    LRDIAG:  cpu time    0.0030: real time    0.0029
    MIXING:  cpu time    0.0010: real time    0.0008
    --------------------------------------------
      LOOP:  cpu time    0.0600: real time    0.0886

 Broyden mixing:
  rms(total) = 0.30326E-04    rms(broyden)= 0.29069E-04
  rms(prec ) = 0.35175E-04
  weight for this iteration     100.00

 eigenvalues of (default mixing * dielectric matrix)
  average eigenvalue GAMMA=   1.6188
  3.0615  2.6313  2.6313  2.3276  0.4377  1.6936  1.0762  1.0579  0.9967  0.9464
  0.9464

 Free energy of the ion-electron system (eV)
  ---------------------------------------------------
  -Hartree energ DENC   =      -355.68488287
  -V(xc)+E(xc)   XCENC  =        22.80980920
  PAW double counting   =       336.39146725     -336.72680659
  entropy T*S    EENTRO =         0.00000000
  eigenvalues    EBANDS =      -337.73451522
  ---------------------------------------------------
  free energy    TOTEN  =      -670.94492822 eV

  energy without entropy =     -670.94492822


----------------------------------------- Iteration    2(  14)  ---------------------------------------


   POT+DIJ:  cpu time    0.0180: real time    0.0181
    HAMIL1:  cpu time    0.0110: real time    0.0330
    LRDIAG:  cpu time    0.0030: real time    0.0031
    LRDIIS:  cpu time    0.0220: real time    0.0290
    LRDIAG:  cpu time    0.0020: real time    0.0023
    MIXING:  cpu time    0.0010: real time    0.0010
    --------------------------------------------
      LOOP:  cpu time    0.0640: real time    0.0938

 Broyden mixing:
  rms(total) = 0.36947E-05    rms(broyden)= 0.36933E-05
  rms(prec ) = 0.41957E-05
  weight for this iteration     100.00

 eigenvalues of (default mixing * dielectric matrix)
  average eigenvalue GAMMA=   1.5452
  3.0549  2.6244  2.5162  2.3220  0.4377  1.6974  1.2248  1.0350  1.0053  0.9636
  0.9636  0.6972

 Free energy of the ion-electron system (eV)
  ---------------------------------------------------
  -Hartree energ DENC   =      -355.68521573
  -V(xc)+E(xc)   XCENC  =        22.80982029
  PAW double counting   =       336.39211130     -336.72745076
  entropy T*S    EENTRO =         0.00000000
  eigenvalues    EBANDS =      -337.73428207
  ---------------------------------------------------
  free energy    TOTEN  =      -670.94501698 eV

  energy without entropy =     -670.94501698


------------------------ aborting loop because EDIFF is reached ----------------------------------------


 change of polarisation eV/A/(eV/A) component  2 :  -618.597   937.188    -0.000
 dielectric tensor                  component  2 : -1748.544  2650.082    -0.000


--------------------------------------------------------------------------------------------------------


    FORLOC:  cpu time    0.0010: real time    0.0002
    FORNL :  cpu time    0.0540: real time    0.4038
    STRESS:  cpu time    0.1510: real time    1.1546
    OFIELD:  cpu time    0.0000: real time    0.0001
    FORLOC:  cpu time    0.0010: real time    0.0002
    FORNL :  cpu time    0.0560: real time    0.4568
    STRESS:  cpu time    0.1400: real time    1.2069
    OFIELD:  cpu time    0.0000: real time    0.0001
    FORNLD:  cpu time    0.1120: real time    1.1628

 PIEZOELECTRIC TENSOR FIELD DIRECTION 2  (e Angst)
 -----------------------------------------------------------------------------
    -9.84886-15.25552  0.00006           (  0.00037  0.00059  0.00000)
   -15.25533  9.84831  0.00005           (  0.00059 -0.00038 -0.00000)
     0.00006  0.00005 -0.00078           (  0.00000 -0.00000 -0.00000)

 PIEZOELECTRIC TENSOR FIELD DIRECTION 2  (C/m^2)
 -----------------------------------------------------------------------------
    -2.46490 -3.81804  0.00002
    -3.81799  2.46476  0.00001
     0.00002  0.00001 -0.00019


      POSITION         DIRECTION 2           BORN EFFECTIVE CHARGE    (rigid.aug.   ionic)
 -----------------------------------------------------------------------------------------
     -1.23718      2.14347      1.70004   -12.88310-14.56383 -0.00076 ( -0.09742  4.00000)
     -0.00382      1.43892      1.70005    18.80625  5.07639  0.00093 ( -0.09742  4.00000)
 -----------------------------------------------------------------------------------------
    total drift (improves with k-points):   5.92315 -9.48744  0.00017




--------------------------------------------------------------------------------------------------------


 Linear response to external field, progress :
  Direction:   3


----------------------------------------- Iteration    3(   1)  ---------------------------------------


   POT+DIJ:  cpu time    0.0190: real time    0.0188
    HAMIL1:  cpu time    0.0140: real time    0.0552
    LRDIAG:  cpu time    0.0030: real time    0.0032
    LRDIIS:  cpu time    0.0370: real time    0.0418
    LRDIAG:  cpu time    0.0020: real time    0.0022
    --------------------------------------------
      LOOP:  cpu time    0.0750: real time    0.1214

 Free energy of the ion-electron system (eV)
  ---------------------------------------------------
  -Hartree energ DENC   =         0.00000000
  -V(xc)+E(xc)   XCENC  =         0.00000000
  PAW double counting   =         0.00000000        0.00000000
  entropy T*S    EENTRO =         0.00000000
  eigenvalues    EBANDS =        -0.08642958
  ---------------------------------------------------
  free energy    TOTEN  =        -0.08642958 eV

  energy without entropy =       -0.08642958


----------------------------------------- Iteration    3(   2)  ---------------------------------------


   POT+DIJ:  cpu time    0.0160: real time    0.0162
    HAMIL1:  cpu time    0.0110: real time    0.0347
    LRDIAG:  cpu time    0.0040: real time    0.0038
    LRDIIS:  cpu time    0.0220: real time    0.0286
    LRDIAG:  cpu time    0.0020: real time    0.0018
    MIXING:  cpu time    0.0010: real time    0.0003
    --------------------------------------------
      LOOP:  cpu time    0.0610: real time    0.0911

 Broyden mixing:
  rms(total) = 0.48868E-01    rms(broyden)= 0.48861E-01
  rms(prec ) = 0.10682E+00
  weight for this iteration     100.00

 Free energy of the ion-electron system (eV)
  ---------------------------------------------------
  -Hartree energ DENC   =         0.00000000
  -V(xc)+E(xc)   XCENC  =         0.00000000
  PAW double counting   =         0.00000000        0.00000000
  entropy T*S    EENTRO =         0.00000000
  eigenvalues    EBANDS =        -0.08795396
  ---------------------------------------------------
  free energy    TOTEN  =        -0.08795396 eV

  energy without entropy =       -0.08795396


----------------------------------------- Iteration    3(   3)  ---------------------------------------


   POT+DIJ:  cpu time    0.0140: real time    0.0143
    HAMIL1:  cpu time    0.0130: real time    0.0465
    LRDIAG:  cpu time    0.0050: real time    0.0043
    LRDIIS:  cpu time    0.0260: real time    0.0334
    LRDIAG:  cpu time    0.0030: real time    0.0030
    MIXING:  cpu time    0.0010: real time    0.0003
    --------------------------------------------
      LOOP:  cpu time    0.0680: real time    0.1078

 Broyden mixing:
  rms(total) = 0.19205E-01    rms(broyden)= 0.19205E-01
  rms(prec ) = 0.53178E-01
  weight for this iteration     100.00

 eigenvalues of (default mixing * dielectric matrix)
  average eigenvalue GAMMA=   1.3190
  1.3190

 Free energy of the ion-electron system (eV)
  ---------------------------------------------------
  -Hartree energ DENC   =        -0.00614680
  -V(xc)+E(xc)   XCENC  =         0.00016054
  PAW double counting   =         0.00002375       -0.00002377
  entropy T*S    EENTRO =         0.00000000
  eigenvalues    EBANDS =        -0.04654328
  ---------------------------------------------------
  free energy    TOTEN  =        -0.05252956 eV

  energy without entropy =       -0.05252956


----------------------------------------- Iteration    3(   4)  ---------------------------------------


   POT+DIJ:  cpu time    0.0140: real time    0.0140
    HAMIL1:  cpu time    0.0080: real time    0.0379
    LRDIAG:  cpu time    0.0030: real time    0.0032
    LRDIIS:  cpu time    0.0190: real time    0.0249
    LRDIAG:  cpu time    0.0020: real time    0.0013
    MIXING:  cpu time    0.0000: real time    0.0003
    --------------------------------------------
      LOOP:  cpu time    0.0510: real time    0.0870

 Broyden mixing:
  rms(total) = 0.10660E-01    rms(broyden)= 0.10657E-01
  rms(prec ) = 0.23310E-01
  weight for this iteration     100.00

 eigenvalues of (default mixing * dielectric matrix)
  average eigenvalue GAMMA=   1.9218
  1.9218  1.9218

 Free energy of the ion-electron system (eV)
  ---------------------------------------------------
  -Hartree energ DENC   =        -0.01783765
  -V(xc)+E(xc)   XCENC  =         0.00042447
  PAW double counting   =         0.00001141       -0.00001037
  entropy T*S    EENTRO =         0.00000000
  eigenvalues    EBANDS =        -0.02556984
  ---------------------------------------------------
  free energy    TOTEN  =        -0.04298198 eV

  energy without entropy =       -0.04298198


----------------------------------------- Iteration    3(   5)  ---------------------------------------


   POT+DIJ:  cpu time    0.0140: real time    0.0137
    HAMIL1:  cpu time    0.0080: real time    0.0297
    LRDIAG:  cpu time    0.0020: real time    0.0021
    LRDIIS:  cpu time    0.0220: real time    0.0267
    LRDIAG:  cpu time    0.0010: real time    0.0018
    MIXING:  cpu time    0.0010: real time    0.0006
    --------------------------------------------
      LOOP:  cpu time    0.0540: real time    0.0809

 Broyden mixing:
  rms(total) = 0.43963E-02    rms(broyden)= 0.43952E-02
  rms(prec ) = 0.10448E-01
  weight for this iteration     100.00

 eigenvalues of (default mixing * dielectric matrix)
  average eigenvalue GAMMA=   2.2551
  1.5529  2.6063  2.6063

 Free energy of the ion-electron system (eV)
  ---------------------------------------------------
  -Hartree energ DENC   =        -0.02194801
  -V(xc)+E(xc)   XCENC  =         0.00051618
  PAW double counting   =         0.00019612       -0.00018841
  entropy T*S    EENTRO =         0.00000000
  eigenvalues    EBANDS =        -0.02016705
  ---------------------------------------------------
  free energy    TOTEN  =        -0.04159117 eV

  energy without entropy =       -0.04159117


----------------------------------------- Iteration    3(   6)  ---------------------------------------


   POT+DIJ:  cpu time    0.0150: real time    0.0147
    HAMIL1:  cpu time    0.0080: real time    0.0317
    LRDIAG:  cpu time    0.0030: real time    0.0027
    LRDIIS:  cpu time    0.0240: real time    0.0295
    LRDIAG:  cpu time    0.0030: real time    0.0027
    MIXING:  cpu time    0.0010: real time    0.0008
    --------------------------------------------
      LOOP:  cpu time    0.0600: real time    0.0889

 Broyden mixing:
  rms(total) = 0.29530E-02    rms(broyden)= 0.29483E-02
  rms(prec ) = 0.51965E-02
  weight for this iteration     100.00

 eigenvalues of (default mixing * dielectric matrix)
  average eigenvalue GAMMA=   1.9874
  2.9550  2.9550  1.5699  0.4697

 Free energy of the ion-electron system (eV)
  ---------------------------------------------------
  -Hartree energ DENC   =        -0.02285956
  -V(xc)+E(xc)   XCENC  =         0.00047329
  PAW double counting   =         0.00006248       -0.00006000
  entropy T*S    EENTRO =         0.00000000
  eigenvalues    EBANDS =        -0.01829293
  ---------------------------------------------------
  free energy    TOTEN  =        -0.04067673 eV

  energy without entropy =       -0.04067673


----------------------------------------- Iteration    3(   7)  ---------------------------------------


   POT+DIJ:  cpu time    0.0160: real time    0.0153
    HAMIL1:  cpu time    0.0090: real time    0.0332
    LRDIAG:  cpu time    0.0020: real time    0.0028
    LRDIIS:  cpu time    0.0200: real time    0.0256
    LRDIAG:  cpu time    0.0020: real time    0.0022
    MIXING:  cpu time    0.0010: real time    0.0005
    --------------------------------------------
      LOOP:  cpu time    0.0560: real time    0.0858

 Broyden mixing:
  rms(total) = 0.26574E-02    rms(broyden)= 0.26458E-02
  rms(prec ) = 0.40859E-02
  weight for this iteration     100.00

 eigenvalues of (default mixing * dielectric matrix)
  average eigenvalue GAMMA=   2.0811
  3.8520  3.1915  1.4850  1.4850  0.3921

 Free energy of the ion-electron system (eV)
  ---------------------------------------------------
  -Hartree energ DENC   =        -0.02279736
  -V(xc)+E(xc)   XCENC  =         0.00046486
  PAW double counting   =         0.00004705       -0.00004517
  entropy T*S    EENTRO =         0.00000000
  eigenvalues    EBANDS =        -0.01822090
  ---------------------------------------------------
  free energy    TOTEN  =        -0.04055151 eV

  energy without entropy =       -0.04055151


----------------------------------------- Iteration    3(   8)  ---------------------------------------


   POT+DIJ:  cpu time    0.0140: real time    0.0157
    HAMIL1:  cpu time    0.0080: real time    0.0339
    LRDIAG:  cpu time    0.0030: real time    0.0028
    LRDIIS:  cpu time    0.0210: real time    0.0269
    LRDIAG:  cpu time    0.0010: real time    0.0020
    MIXING:  cpu time    0.0010: real time    0.0004
    --------------------------------------------
      LOOP:  cpu time    0.0620: real time    0.0957

 Broyden mixing:
  rms(total) = 0.11123E-02    rms(broyden)= 0.11081E-02
  rms(prec ) = 0.20619E-02
  weight for this iteration     100.00

 eigenvalues of (default mixing * dielectric matrix)
  average eigenvalue GAMMA=   2.6533
  6.8904  3.4068  2.6150  1.5752  1.0416  0.3909

 Free energy of the ion-electron system (eV)
  ---------------------------------------------------
  -Hartree energ DENC   =        -0.02261865
  -V(xc)+E(xc)   XCENC  =         0.00044905
  PAW double counting   =         0.00004281       -0.00004099
  entropy T*S    EENTRO =         0.00000000
  eigenvalues    EBANDS =        -0.01831716
  ---------------------------------------------------
  free energy    TOTEN  =        -0.04048495 eV

  energy without entropy =       -0.04048495


------------------------ aborting loop because EDIFF is reached ----------------------------------------


 change of polarisation eV/A/(eV/A) component  3 :     0.008    -0.012     0.075
 dielectric tensor                  component  3 :     0.022    -0.034     1.212


--------------------------------------------------------------------------------------------------------


    FORLOC:  cpu time    0.0010: real time    0.0003
    FORNL :  cpu time    0.0720: real time    0.4003
    STRESS:  cpu time    0.1860: real time    1.1949
    OFIELD:  cpu time    0.0000: real time    0.0001
    FORLOC:  cpu time    0.0010: real time    0.0005
    FORNL :  cpu time    0.0530: real time    0.3753
    STRESS:  cpu time    0.1410: real time    1.1196
    OFIELD:  cpu time    0.0000: real time    0.0001
    FORNLD:  cpu time    0.1180: real time    1.1992

 PIEZOELECTRIC TENSOR FIELD DIRECTION 3  (e Angst)
 -----------------------------------------------------------------------------
     0.00003  0.00005 -0.00002           (  0.00000  0.00000 -0.00000)
     0.00005 -0.00003 -0.00013           (  0.00000  0.00000 -0.00001)
    -0.00002 -0.00013 -0.00000           ( -0.00000 -0.00001  0.00000)

 PIEZOELECTRIC TENSOR FIELD DIRECTION 3  (C/m^2)
 -----------------------------------------------------------------------------
     0.00001  0.00001 -0.00001
     0.00001 -0.00001 -0.00003
    -0.00001 -0.00003 -0.00000


      POSITION         DIRECTION 3           BORN EFFECTIVE CHARGE    (rigid.aug.   ionic)
 -----------------------------------------------------------------------------------------
     -1.23718      2.14347      1.70004     0.00002  0.00001 -0.00390 ( -0.09742  4.00000)
     -0.00382      1.43892      1.70005    -0.00002 -0.00001 -0.00380 ( -0.09742  4.00000)
 -----------------------------------------------------------------------------------------
    total drift (improves with k-points):   0.00000 -0.00000 -0.00770




--------------------------------------------------------------------------------------------------------




 MACROSCOPIC STATIC DIELECTRIC TENSOR (including local field effects in DFT)
 ------------------------------------------------------
        1131.267018 -1748.543705     0.022222
       -1710.783503  2650.081749    -0.033656
           0.000077    -0.000123     1.211634
 ------------------------------------------------------



--------------------------------------------------------------------------------------------------------




--------------------------------------------------------------------------------------------------------




 MACROSCOPIC STATIC DIELECTRIC TENSOR (including local field effects in DFT)
 ------------------------------------------------------
        1131.267018 -1748.543705     0.022222
       -1710.783503  2650.081749    -0.033656
           0.000077    -0.000123     1.211634
 ------------------------------------------------------


 PIEZOELECTRIC TENSOR  for field in x, y, z        (e  Angst)
          XX          YY          ZZ          XY          YZ          ZX
  --------------------------------------------------------------------------------
  x     6.40537    -6.40456     0.00012     9.92320    -0.00004    -0.00004
  y    -9.84886     9.84831    -0.00078   -15.25533     0.00005     0.00006
  z     0.00003    -0.00003    -0.00000     0.00005    -0.00013    -0.00002

 PIEZOELECTRIC TENSOR  for field in x, y, z        (C/m^2)
          XX          YY          ZZ          XY          YZ          ZX
  --------------------------------------------------------------------------------
  x     1.60309    -1.60289     0.00003     2.48350    -0.00001    -0.00001
  y    -2.46490     2.46476    -0.00019    -3.81799     0.00001     0.00002
  z     0.00001    -0.00001    -0.00000     0.00001    -0.00003    -0.00001
 
 BORN EFFECTIVE CHARGES (in e, cummulative output)
 -------------------------------------------------
 ion    1
    1    10.28897     6.37873     0.00050
    2   -15.84467    -9.82011    -0.00085
    3     0.00002     0.00001    -0.00005
 ion    2
    1   -10.28897    -6.37873    -0.00050
    2    15.84467     9.82011     0.00085
    3    -0.00002    -0.00001     0.00005


--------------------------------------------------------------------------------------------------------


     LOOP+:  cpu time    9.2506: real time   28.7544
    4ORBIT:  cpu time    0.0000: real time    0.0000

 total amount of memory used by VASP MPI-rank0    32839. kBytes
=======================================================================

   base      :      30000. kBytes
   nonlr-proj:        210. kBytes
   fftplans  :       1526. kBytes
   grid      :        907. kBytes
   one-center:          6. kBytes
   wavefun   :        190. kBytes
 
  
  
 General timing and accounting informations for this job:
 ========================================================
  
                  Total CPU time used (sec):       10.249
                            User time (sec):        9.141
                          System time (sec):        1.109
                         Elapsed time (sec):       30.912
  
                   Maximum memory used (kb):      298540.
                   Average memory used (kb):           0.
  
                          Minor page faults:        64154
                          Major page faults:            0
                 Voluntary context switches:        13432
