 vasp.5.4.4.18Apr17-6-g9f103f2a35 (build May 02 2017 19:20:32) complex          
  
 executed on    fermion-Intel-MKL date 2017.12.10  16:51:20
 running on    7 total cores
 distrk:  each k-point on    7 cores,    1 groups
 distr:  one band on NCORES_PER_BAND=   1 cores,    7 groups


--------------------------------------------------------------------------------------------------------


 INCAR:
 POTCAR:   PAW_PBE C 08Apr2002                    

 ----------------------------------------------------------------------------- 
|                                                                             |
|           W    W    AA    RRRRR   N    N  II  N    N   GGGG   !!!           |
|           W    W   A  A   R    R  NN   N  II  NN   N  G    G  !!!           |
|           W    W  A    A  R    R  N N  N  II  N N  N  G       !!!           |
|           W WW W  AAAAAA  RRRRR   N  N N  II  N  N N  G  GGG   !            |
|           WW  WW  A    A  R   R   N   NN  II  N   NN  G    G                |
|           W    W  A    A  R    R  N    N  II  N    N   GGGG   !!!           |
|                                                                             |
|      For optimal performance we recommend to set                            |
|        NCORE= 4 - approx SQRT( number of cores)                             |
|      NCORE specifies how many cores store one orbital (NPAR=cpu/NCORE).     |
|      This setting can  greatly improve the performance of VASP for DFT.     |
|      The default,   NCORE=1            might be grossly inefficient         |
|      on modern multi-core architectures or massively parallel machines.     |
|      Do your own testing !!!!                                               |
|      Unfortunately you need to use the default for GW and RPA calculations. |
|      (for HF NCORE is supported but not extensively tested yet)             |
|                                                                             |
 ----------------------------------------------------------------------------- 

 POTCAR:   PAW_PBE C 08Apr2002                    
   VRHFIN =C: s2p2                                                              
   LEXCH  = PE                                                                  
   EATOM  =   147.1560 eV,   10.8157 Ry                                         
                                                                                
   TITEL  = PAW_PBE C 08Apr2002                                                 
   LULTRA =        F    use ultrasoft PP ?                                      
   IUNSCR =        0    unscreen: 0-lin 1-nonlin 2-no                           
   RPACOR =     .000    partial core radius                                     
   POMASS =   12.011; ZVAL   =    4.000    mass and valenz                      
   RCORE  =    1.500    outmost cutoff radius                                   
   RWIGS  =    1.630; RWIGS  =     .863    wigner-seitz radius (au A)           
   ENMAX  =  400.000; ENMIN  =  300.000 eV                                      
   ICORE  =        2    local potential                                         
   LCOR   =        T    correct aug charges                                     
   LPAW   =        T    paw PP                                                  
   EAUG   =  644.873                                                            
   DEXC   =     .000                                                            
   RMAX   =    2.266    core radius for proj-oper                               
   RAUG   =    1.300    factor for augmentation sphere                          
   RDEP   =    1.501    radius for radial grids                                 
   RDEPT  =    1.300    core radius for aug-charge                              
   QCUT   =   -5.516; QGAM   =   11.032    optimization parameters              
                                                                                
   Description                                                                  
     l     E      TYP  RCUT    TYP  RCUT                                        
     0   .000     23  1.200                                                     
     0   .000     23  1.200                                                     
     1   .000     23  1.500                                                     
     1  2.500     23  1.500                                                     
     2   .000      7  1.500                                                     
  local pseudopotential read in
  atomic valenz-charges read in
  non local Contribution for L=           0  read in
    real space projection operators read in
  non local Contribution for L=           0  read in
    real space projection operators read in
  non local Contribution for L=           1  read in
    real space projection operators read in
  non local Contribution for L=           1  read in
    real space projection operators read in
    PAW grid and wavefunctions read in
 
   number of l-projection  operators is LMAX  =           4
   number of lm-projection operators is LMMAX =           8
 

 ----------------------------------------------------------------------------- 
|                                                                             |
|  ADVICE TO THIS USER RUNNING 'VASP/VAMP'   (HEAR YOUR MASTER'S VOICE ...):  |
|                                                                             |
|      You have a (more or less) 'small supercell' and for smaller cells      |
|      it is recommended  to use the reciprocal-space projection scheme!      |
|      The real space optimization is not  efficient for small cells and it   |
|      is also less accurate ...                                              |
|      Therefore set LREAL=.FALSE. in the  INCAR file                         |
|                                                                             |
 ----------------------------------------------------------------------------- 

 Optimization of the real space projectors (new method)

 maximal supplied QI-value         = 25.13
 optimisation between [QCUT,QGAM] = [ 10.05, 20.36] = [ 28.30,116.06] Ry 
 Optimized for a Real-space Cutoff    1.30 Angstroem

   l    n(q)    QCUT    max X(q) W(low)/X(q) W(high)/X(q)  e(spline) 
   0      8    10.053     5.582    0.43E-04    0.44E-04    0.61E-07
   0      8    10.053    69.432    0.49E-03    0.71E-03    0.18E-06
   1      7    10.053     2.780    0.78E-04    0.13E-03    0.11E-06
   1      7    10.053     4.549    0.23E-03    0.19E-03    0.20E-06
 PAW_PBE C 08Apr2002                    :
 energy of atom  1       EATOM= -147.1560
 kinetic energy error for atom=    0.0288 (will be added to EATOM!!)
 
 
 POSCAR: OUTCAR.0005.+1.out 1.0e-02              
  positions in cartesian coordinates
  No initial velocities read in
 exchange correlation table for  LEXCH =        8
   RHO(1)=    0.500       N(1)  =     2000
   RHO(2)=  100.500       N(2)  =     4000
 


--------------------------------------------------------------------------------------------------------


 ion  position               nearest neighbor table
   1  1.000  0.003  0.142-   2 1.42   2 1.43   2 1.45
   2  0.333  0.664  0.142-   1 1.42   1 1.43   1 1.45
 

IMPORTANT INFORMATION: All symmetrisations will be switched off!
NOSYMM: (Re-)initialisation of all symmetry stuff for point group C_1.

 
 
 KPOINTS: K-Points                                

Automatic generation of k-mesh.
Space group operators:
 irot       det(A)        alpha          n_x          n_y          n_z        tau_x        tau_y        tau_z
    1     1.000000     0.000000     1.000000     0.000000     0.000000     0.000000     0.000000     0.000000
 
 Subroutine IBZKPT returns following result:
 ===========================================
 
 Found      5 irreducible k-points:
 
 Following reciprocal coordinates:
            Coordinates               Weight
  0.000000  0.000000  0.000000      1.000000
  0.333333  0.000000  0.000000      2.000000
  0.000000  0.333333  0.000000      2.000000
  0.333333  0.333333  0.000000      2.000000
 -0.333333  0.333333  0.000000      2.000000
 
 Following cartesian coordinates:
            Coordinates               Weight
  0.000000  0.000000  0.000000      1.000000
  0.134303  0.077540 -0.000000      2.000000
  0.000000  0.155080 -0.000000      2.000000
  0.134303  0.232620 -0.000000      2.000000
 -0.134303  0.077540  0.000000      2.000000
 
 
 Subroutine IBZKPT_HF returns following result:
 ==============================================
 
 Found      9 k-points in 1st BZ
 the following      9 k-points will be used (e.g. in the exchange kernel)
 Following reciprocal coordinates:   # in IRBZ
  0.000000  0.000000  0.000000    0.11111111   1 t-inv F
  0.333333  0.000000  0.000000    0.11111111   2 t-inv F
  0.000000  0.333333  0.000000    0.11111111   3 t-inv F
  0.333333  0.333333  0.000000    0.11111111   4 t-inv F
 -0.333333  0.333333  0.000000    0.11111111   5 t-inv F
 -0.333333 -0.000000 -0.000000    0.11111111   2 t-inv T
  0.000000 -0.333333 -0.000000    0.11111111   3 t-inv T
 -0.333333 -0.333333 -0.000000    0.11111111   4 t-inv T
  0.333333 -0.333333  0.000000    0.11111111   5 t-inv T


--------------------------------------------------------------------------------------------------------




 Dimension of arrays:
   k-points           NKPTS =      5   k-points in BZ     NKDIM =      5   number of bands    NBANDS=     14
   number of dos      NEDOS =    301   number of ions     NIONS =      2
   non local maximal  LDIM  =      4   non local SUM 2l+1 LMDIM =      8
   total plane-waves  NPLWV =   8640
   max r-space proj   IRMAX =   1295   max aug-charges    IRDMAX=  12939
   dimension x,y,z NGX =    12 NGY =   12 NGZ =   60
   dimension x,y,z NGXF=    24 NGYF=   24 NGZF=  120
   support grid    NGXF=    48 NGYF=   48 NGZF=  240
   ions per type =               2
   NGX,Y,Z   is equivalent  to a cutoff of   8.04,  8.04,  8.31 a.u.
   NGXF,Y,Z  is equivalent  to a cutoff of  16.08, 16.08, 16.62 a.u.

 SYSTEM =  raman                                   
 POSCAR =  OUTCAR.0005.+1.out 1.0e-02              

 Startparameter for this run:
   NWRITE =      3    write-flag & timer
   PREC   = n         normal or accurate (medium, high low for compatibility)
   ISTART =      0    job   : 0-new  1-cont  2-samecut
   ICHARG =      2    charge: 1-file 2-atom 10-const
   ISPIN  =      1    spin polarized calculation?
   LNONCOLLINEAR =      F non collinear calculations
   LSORBIT =      F    spin-orbit coupling
   INIWAV =      1    electr: 0-lowe 1-rand  2-diag
   LASPH  =      F    aspherical Exc in radial PAW
   METAGGA=      F    non-selfconsistent MetaGGA calc.

 Electronic Relaxation 1
   ENCUT  =  400.0 eV  29.40 Ry    5.42 a.u.   4.05  4.05 19.57*2*pi/ulx,y,z
   ENINI  =  400.0     initial cutoff
   ENAUG  =  644.9 eV  augmentation charge cutoff
   NELM   =     60;   NELMIN=  4; NELMDL= -5     # of ELM steps 
   EDIFF  = 0.1E-03   stopping-criterion for ELM
   LREAL  =      T    real-space projection
   NLSPLINE    = F    spline interpolate recip. space projectors
   LCOMPAT=      F    compatible to vasp.4.4
   GGA_COMPAT  = T    GGA compatible to vasp.4.4-vasp.4.6
   LMAXPAW     = -100 max onsite density
   LMAXMIX     =    2 max onsite mixed and CHGCAR
   VOSKOWN=      0    Vosko Wilk Nusair interpolation
   ROPT   =   -0.00050
 Ionic relaxation
   EDIFFG = 0.1E-02   stopping-criterion for IOM
   NSW    =      0    number of steps for IOM
   NBLOCK =      1;   KBLOCK =      1    inner block; outer block 
   IBRION =     -1    ionic relax: 0-MD 1-quasi-New 2-CG
   NFREE  =      0    steps in history (QN), initial steepest desc. (CG)
   ISIF   =      2    stress and relaxation
   IWAVPR =     10    prediction:  0-non 1-charg 2-wave 3-comb
   ISYM   =      0    0-nonsym 1-usesym 2-fastsym
   LCORR  =      T    Harris-Foulkes like correction to forces

   POTIM  = 0.5000    time-step for ionic-motion
   TEIN   =    0.0    initial temperature
   TEBEG  =    0.0;   TEEND  =   0.0 temperature during run
   SMASS  =  -3.00    Nose mass-parameter (am)
   estimated Nose-frequenzy (Omega)   =  0.10E-29 period in steps =****** mass=  -0.141E-27a.u.
   SCALEE = 1.0000    scale energy and forces
   NPACO  =    256;   APACO  = 16.0  distance and # of slots for P.C.
   PSTRESS=    0.0 pullay stress

  Mass of Ions in am
   POMASS =  12.01
  Ionic Valenz
   ZVAL   =   4.00
  Atomic Wigner-Seitz radii
   RWIGS  =  -1.00
  virtual crystal weights 
   VCA    =   1.00
   NELECT =       8.0000    total number of electrons
   NUPDOWN=      -1.0000    fix difference up-down

 DOS related values:
   EMIN   =  10.00;   EMAX   =-10.00  energy-range for DOS
   EFERMI =   0.00
   ISMEAR =     1;   SIGMA  =   0.20  broadening in eV -4-tet -1-fermi 0-gaus

 Electronic relaxation 2 (details)
   IALGO  =     38    algorithm
   LDIAG  =      T    sub-space diagonalisation (order eigenvalues)
   LSUBROT=      F    optimize rotation matrix (better conditioning)
   TURBO    =      0    0=normal 1=particle mesh
   IRESTART =      0    0=no restart 2=restart with 2 vectors
   NREBOOT  =      0    no. of reboots
   NMIN     =      0    reboot dimension
   EREF     =   0.00    reference energy to select bands
   IMIX   =      4    mixing-type and parameters
     AMIX     =   0.40;   BMIX     =  1.00
     AMIX_MAG =   1.60;   BMIX_MAG =  1.00
     AMIN     =   0.10
     WC   =   100.;   INIMIX=   1;  MIXPRE=   1;  MAXMIX= -45

 Intra band minimization:
   WEIMIN = 0.0000     energy-eigenvalue tresh-hold
   EBREAK =  0.18E-05  absolut break condition
   DEPER  =   0.30     relativ break condition  

   TIME   =   0.40     timestep for ELM

  volume/ion in A,a.u.               =      32.01       216.01
  Fermi-wavevector in a.u.,A,eV,Ry     =   0.818475  1.546694  9.114571  0.669902
  Thomas-Fermi vector in A             =   1.929109
 
 Write flags
   LWAVE        =      F    write WAVECAR
   LDOWNSAMPLE  =      F    k-point downsampling of WAVECAR
   LCHARG       =      F    write CHGCAR
   LVTOT        =      F    write LOCPOT, total local potential
   LVHAR        =      F    write LOCPOT, Hartree potential only
   LELF         =      F    write electronic localiz. function (ELF)
   LORBIT       =      0    0 simple, 1 ext, 2 COOP (PROOUT), +10 PAW based schemes


 Dipole corrections
   LMONO  =      F    monopole corrections only (constant potential shift)
   LDIPOL =      F    correct potential (dipole corrections)
   IDIPOL =      0    1-x, 2-y, 3-z, 4-all directions 
   EPSILON=  1.0000000 bulk dielectric constant

 Exchange correlation treatment:
   GGA     =    --    GGA type
   LEXCH   =     8    internal setting for exchange type
   VOSKOWN=      0    Vosko Wilk Nusair interpolation
   LHFCALC =     F    Hartree Fock is set to
   LHFONE  =     F    Hartree Fock one center treatment
   AEXX    =    0.0000 exact exchange contribution

 Linear response parameters
   LEPSILON=     T    determine dielectric tensor
   LRPA    =     F    only Hartree local field effects (RPA)
   LNABLA  =     F    use nabla operator in PAW spheres
   LVEL    =     F    velocity operator in full k-point grid
   LINTERFAST=   F  fast interpolation
   KINTER  =     0    interpolate to denser k-point grid
   CSHIFT  =0.1000    complex shift for real part using Kramers Kronig
   OMEGAMAX=  -1.0    maximum frequency
   DEG_THRESHOLD= 0.2000000E-02 threshold for treating states as degnerate
   RTIME   =   -0.100 relaxation time in fs
  (WPLASMAI=    0.000 imaginary part of plasma frequency in eV, 0.658/RTIME)
   DFIELD  = 0.0000000 0.0000000 0.0000000 field for delta impulse in time
 
 Orbital magnetization related:
   ORBITALMAG=     F  switch on orbital magnetization
   LCHIMAG   =     F  perturbation theory with respect to B field
   DQ        =  0.001000  dq finite difference perturbation B field
   LLRAUG    =     F  two centre corrections for induced B field



--------------------------------------------------------------------------------------------------------


 Static calculation
 charge density and potential will be updated during run
 non-spin polarized calculation
 Variant of blocked Davidson
 Davidson routine will perform the subspace rotation
 perform sub-space diagonalisation
    after iterative eigenvector-optimisation
 modified Broyden-mixing scheme, WC =      100.0
 initial mixing is a Kerker type mixing with AMIX =  0.4000 and BMIX =      1.0000
 Hartree-type preconditioning will be used
 using additional bands           10
 real space projection scheme for non local part
 calculate Harris-corrections to forces 
   (improved forces if not selfconsistent)
 use gradient corrections 
 use of overlap-Matrix (Vanderbilt PP)
 Methfessel and Paxton  Order N= 1 SIGMA  =   0.20


--------------------------------------------------------------------------------------------------------


  energy-cutoff  :      400.00
  volume of cell :       64.02
      direct lattice vectors                 reciprocal lattice vectors
     2.481948769  0.000000000  0.000000000     0.402909203  0.232619737 -0.000000000
    -1.240974385  2.149430685  0.000000000     0.000000000  0.465239473 -0.000000000
     0.000000000  0.000000000 12.000000000     0.000000000  0.000000000  0.083333333

  length of vectors
     2.481948769  2.481948769 12.000000000     0.465239473  0.465239473  0.083333333


 
 k-points in units of 2pi/SCALE and weight: K-Points                                
   0.00000000  0.00000000  0.00000000       0.111
   0.13430307  0.07753991 -0.00000000       0.222
   0.00000000  0.15507982 -0.00000000       0.222
   0.13430307  0.23261974 -0.00000000       0.222
  -0.13430307  0.07753991  0.00000000       0.222
 
 k-points in reciprocal lattice and weights: K-Points                                
   0.00000000  0.00000000  0.00000000       0.111
   0.33333333  0.00000000  0.00000000       0.222
   0.00000000  0.33333333  0.00000000       0.222
   0.33333333  0.33333333  0.00000000       0.222
  -0.33333333  0.33333333  0.00000000       0.222
 
 position of ions in fractional coordinates (direct lattice) 
   0.99985781  0.00277382  0.14166994
   0.33347630  0.66389557  0.14166956
 
 position of ions in cartesian coordinates  (Angst):
   2.47815363  0.00596214  1.70003925
   0.00379370  1.42699752  1.70003475
 


--------------------------------------------------------------------------------------------------------


 k-point  1 :   0.0000 0.0000 0.0000  plane waves:    1125
 k-point  2 :   0.3333 0.0000 0.0000  plane waves:    1167
 k-point  3 :   0.0000 0.3333 0.0000  plane waves:    1167
 k-point  4 :   0.3333 0.3333 0.0000  plane waves:    1146
 k-point  5 :  -0.3333 0.3333 0.0000  plane waves:    1167

 maximum and minimum number of plane-waves per node :      1167     1125

 maximum number of plane-waves:      1167
 maximum index in each direction: 
   IXMAX=    4   IYMAX=    4   IZMAX=   19
   IXMIN=   -4   IYMIN=   -4   IZMIN=  -19


 serial   3D FFT for wavefunctions
 parallel 3D FFT for charge:
    minimum data exchange during FFTs selected (reduces bandwidth)


 total amount of memory used by VASP MPI-rank0    32839. kBytes
=======================================================================

   base      :      30000. kBytes
   nonlr-proj:        210. kBytes
   fftplans  :       1526. kBytes
   grid      :        907. kBytes
   one-center:          6. kBytes
   wavefun   :        190. kBytes
 
     INWAV:  cpu time    0.0000: real time    0.0000
 Broyden mixing: mesh for mixing (old mesh)
   NGX =  9   NGY =  9   NGZ = 39
  (NGX  = 24   NGY  = 24   NGZ  =120)
  gives a total of   3159 points

 initial charge density was supplied:
 charge density of overlapping atoms calculated
 number of electron       8.0000000 magnetization 
 keeping initial charge density in first step


--------------------------------------------------------------------------------------------------------


 Maximum index for non-local projection operator         1196
 Maximum index for augmentation-charges         1874 (set IRDMAX)


--------------------------------------------------------------------------------------------------------


 First call to EWALD:  gamma=   0.443
 Maximum number of real-space cells 5x 5x 1
 Maximum number of reciprocal cells 2x 2x 7

    FEWALD:  cpu time    0.0020: real time    0.0028


----------------------------------------- Iteration    1(   1)  ---------------------------------------


    POTLOK:  cpu time    0.0080: real time    0.0083
    SETDIJ:  cpu time    0.0040: real time    0.0034
     EDDAV:  cpu time    0.1820: real time    0.3470
       DOS:  cpu time    0.0010: real time    0.0012
    --------------------------------------------
      LOOP:  cpu time    0.1960: real time    0.3628

 eigenvalue-minimisations  :   140
 total energy-change (2. order) : 0.1328815E+02  (-0.3578804E+03)
 number of electron       8.0000000 magnetization 
 augmentation part        8.0000000 magnetization 

 Free energy of the ion-electron system (eV)
  ---------------------------------------------------
  alpha Z        PSCENC =         5.09113229
  Ewald energy   TEWEN  =       551.15197154
  -Hartree energ DENC   =      -777.06224061
  -exchange      EXHF   =         0.00000000
  -V(xc)+E(xc)   XCENC  =        27.46742246
  PAW double counting   =        75.66288619      -77.96384553
  entropy T*S    EENTRO =        -0.01333874
  eigenvalues    EBANDS =       -85.30028957
  atomic energy  EATOM  =       294.25444774
  Solvation  Ediel_sol  =         0.00000000
  ---------------------------------------------------
  free energy    TOTEN  =        13.28814578 eV

  energy without entropy =       13.30148452  energy(sigma->0) =       13.29259203


--------------------------------------------------------------------------------------------------------




 average (electrostatic) potential at core
  the test charge radii are     0.6991
  (the norm of the test charge is              1.0000)
       1 -62.8987       2 -62.8987
 
 
 
 E-fermi :   2.5444     XC(G=0):  -3.9366     alpha+bet : -3.1363


 k-point     1 :       0.0000    0.0000    0.0000
  band No.  band energies     occupation 
      1     -24.3092      2.00000
      2     -11.2457      2.00000
      3      -3.8054      2.00000
      4       1.2512      2.00000
      5       2.4611      1.64196
      6       2.9496     -0.01470
      7       3.8805     -0.00000
      8       6.9168     -0.00000
      9       8.2525      0.00000
     10      11.1495      0.00000
     11      13.9903      0.00000
     12      15.7783      0.00000
     13      20.6072      0.00000
     14      21.6756      0.00000

 k-point     2 :       0.3333    0.0000    0.0000
  band No.  band energies     occupation 
      1     -21.8423      2.00000
      2     -11.6994      2.00000
      3      -7.3749      2.00000
      4      -5.4553      2.00000
      5       5.1566     -0.00000
      6       6.6468     -0.00000
      7       7.5075     -0.00000
      8      10.0523      0.00000
      9      11.7398      0.00000
     10      13.8273      0.00000
     11      16.9465      0.00000
     12      17.9525      0.00000
     13      20.7662      0.00000
     14      24.9882      0.00000

 k-point     3 :       0.0000    0.3333    0.0000
  band No.  band energies     occupation 
      1     -21.8367      2.00000
      2     -10.4675      2.00000
      3      -7.6135      2.00000
      4      -3.1656      2.00000
      5       5.2199     -0.00000
      6       6.4888     -0.00000
      7       7.4910     -0.00000
      8       9.9545      0.00000
      9      11.7623      0.00000
     10      13.4035      0.00000
     11      16.3708      0.00000
     12      18.4083      0.00000
     13      18.9342      0.00000
     14      20.2558      0.00000

 k-point     4 :       0.3333    0.3333    0.0000
  band No.  band energies     occupation 
      1     -16.6870      2.00000
      2     -14.8213      2.00000
      3     -13.0893      2.00000
      4       0.0671      2.00000
      5       2.9555     -0.01332
      6      12.2898      0.00000
      7      13.1523      0.00000
      8      13.5703      0.00000
      9      14.2669      0.00000
     10      14.8661      0.00000
     11      16.2084      0.00000
     12      17.6245      0.00000
     13      19.4939      0.00000
     14      21.2822      0.00000

 k-point     5 :      -0.3333    0.3333    0.0000
  band No.  band energies     occupation 
      1     -21.6786      2.00000
      2     -12.4871      2.00000
      3      -7.2114      2.00000
      4       2.5207      1.19969
      5       5.2802     -0.00000
      6       7.1822     -0.00000
      7       7.8848     -0.00000
      8       9.4892      0.00000
      9      12.0696      0.00000
     10      15.3462      0.00000
     11      17.8709      0.00000
     12      19.4686      0.00000
     13      21.9611      0.00000
     14      22.2321      0.00000


--------------------------------------------------------------------------------------------------------


 soft charge-density along one line, spin component           1
         0         1         2         3         4         5         6         7         8         9
 total charge-density along one line
 
 pseudopotential strength for first ion, spin component:           1
 10.479   0.027   0.001  -0.000  -0.000  -0.001   0.000   0.000
  0.027  -0.001  -0.000   0.000   0.000  -0.000   0.000   0.000
  0.001  -0.000  -4.632   0.000  -0.001  -0.003   0.000  -0.000
 -0.000   0.000   0.000  -4.598  -0.000   0.000   0.002  -0.000
 -0.000   0.000  -0.001  -0.000  -4.630  -0.000  -0.000  -0.003
 -0.001  -0.000  -0.003   0.000  -0.000  -0.776   0.000  -0.000
  0.000   0.000   0.000   0.002  -0.000   0.000  -0.775  -0.000
  0.000   0.000  -0.000  -0.000  -0.003  -0.000  -0.000  -0.776
 total augmentation occupancy for first ion, spin component:           1
  2.000   0.000   0.000   0.000   0.000   0.000   0.000   0.000
  0.000   0.000   0.000   0.000   0.000   0.000   0.000   0.000
  0.000   0.000   0.667   0.000   0.000   0.000   0.000   0.000
  0.000   0.000   0.000   0.667   0.000   0.000   0.000   0.000
  0.000   0.000   0.000   0.000   0.667   0.000   0.000   0.000
  0.000   0.000   0.000   0.000   0.000   0.000   0.000   0.000
  0.000   0.000   0.000   0.000   0.000   0.000   0.000   0.000
  0.000   0.000   0.000   0.000   0.000   0.000   0.000   0.000


----------------------------------------- Iteration    1(   2)  ---------------------------------------


     EDDAV:  cpu time    0.1400: real time    0.2919
       DOS:  cpu time    0.0010: real time    0.0002
    --------------------------------------------
      LOOP:  cpu time    0.1420: real time    0.2940

 eigenvalue-minimisations  :   224
 total energy-change (2. order) :-0.3207695E+02  (-0.3019497E+02)
 number of electron       8.0000000 magnetization 
 augmentation part        8.0000000 magnetization 

 Free energy of the ion-electron system (eV)
  ---------------------------------------------------
  alpha Z        PSCENC =         5.09113229
  Ewald energy   TEWEN  =       551.15197154
  -Hartree energ DENC   =      -777.06224061
  -exchange      EXHF   =         0.00000000
  -V(xc)+E(xc)   XCENC  =        27.46742246
  PAW double counting   =        75.66288619      -77.96384553
  entropy T*S    EENTRO =        -0.01042950
  eigenvalues    EBANDS =      -117.38014923
  atomic energy  EATOM  =       294.25444774
  Solvation  Ediel_sol  =         0.00000000
  ---------------------------------------------------
  free energy    TOTEN  =       -18.78880463 eV

  energy without entropy =      -18.77837514  energy(sigma->0) =      -18.78532814


--------------------------------------------------------------------------------------------------------




 average (electrostatic) potential at core
  the test charge radii are     0.6991
  (the norm of the test charge is              1.0000)
       1 -62.8987       2 -62.8987
 
 
 
 E-fermi :  -4.9257     XC(G=0):  -3.9366     alpha+bet : -3.1363


 k-point     1 :       0.0000    0.0000    0.0000
  band No.  band energies     occupation 
      1     -25.0230      2.00000
      2     -12.1694      2.00000
      3      -9.5920      2.00000
      4      -9.1395      2.00000
      5       1.2684      0.00000
      6       2.2229      0.00000
      7       2.5942      0.00000
      8       2.8158      0.00000
      9       3.6390      0.00000
     10       5.8949      0.00000
     11       6.4840      0.00000
     12       6.5360      0.00000
     13       7.7093      0.00000
     14      12.5808      0.00000

 k-point     2 :       0.3333    0.0000    0.0000
  band No.  band energies     occupation 
      1     -22.5574      2.00000
      2     -15.5945      2.00000
      3     -11.9775      2.00000
      4      -9.3275      2.00000
      5      -0.1812     -0.00000
      6       2.0242      0.00000
      7       4.7286      0.00000
      8       6.0470      0.00000
      9       7.1864      0.00000
     10       9.7216      0.00000
     11      10.0318      0.00000
     12      10.6134      0.00000
     13      11.1629      0.00000
     14      13.8373      0.00000

 k-point     3 :       0.0000    0.3333    0.0000
  band No.  band energies     occupation 
      1     -22.5598      2.00000
      2     -15.6585      2.00000
      3     -11.8764      2.00000
      4      -9.3037      2.00000
      5      -0.2314     -0.00000
      6       2.1236      0.00000
      7       4.7280      0.00000
      8       6.0446      0.00000
      9       7.1874      0.00000
     10       9.7185      0.00000
     11       9.7683      0.00000
     12      10.6171      0.00000
     13      11.1646      0.00000
     14      13.8468      0.00000

 k-point     4 :       0.3333    0.3333    0.0000
  band No.  band energies     occupation 
      1     -18.5426      2.00000
      2     -18.3556      2.00000
      3     -16.2915      2.00000
      4      -5.0229      1.72502
      5      -4.8284      0.27498
      6       7.3186      0.00000
      7       8.3090      0.00000
      8       9.4498      0.00000
      9      10.3304      0.00000
     10      12.5820      0.00000
     11      13.0113      0.00000
     12      13.3793      0.00000
     13      13.4599      0.00000
     14      14.3404      0.00000

 k-point     5 :      -0.3333    0.3333    0.0000
  band No.  band energies     occupation 
      1     -22.5408      2.00000
      2     -15.4534      2.00000
      3     -11.8040      2.00000
      4      -9.3041      2.00000
      5       0.2809     -0.00000
      6       2.6933      0.00000
      7       4.7493      0.00000
      8       6.1271      0.00000
      9       7.2208      0.00000
     10       9.8523      0.00000
     11      11.2742      0.00000
     12      14.0796      0.00000
     13      15.1021      0.00000
     14      16.7760      0.00000


--------------------------------------------------------------------------------------------------------


 soft charge-density along one line, spin component           1
         0         1         2         3         4         5         6         7         8         9
 total charge-density along one line
 
 pseudopotential strength for first ion, spin component:           1
 10.479   0.027   0.001  -0.000  -0.000  -0.001   0.000   0.000
  0.027  -0.001  -0.000   0.000   0.000  -0.000   0.000   0.000
  0.001  -0.000  -4.632   0.000  -0.001  -0.003   0.000  -0.000
 -0.000   0.000   0.000  -4.598  -0.000   0.000   0.002  -0.000
 -0.000   0.000  -0.001  -0.000  -4.630  -0.000  -0.000  -0.003
 -0.001  -0.000  -0.003   0.000  -0.000  -0.776   0.000  -0.000
  0.000   0.000   0.000   0.002  -0.000   0.000  -0.775  -0.000
  0.000   0.000  -0.000  -0.000  -0.003  -0.000  -0.000  -0.776
 total augmentation occupancy for first ion, spin component:           1
  2.000   0.000   0.000   0.000   0.000   0.000   0.000   0.000
  0.000   0.000   0.000   0.000   0.000   0.000   0.000   0.000
  0.000   0.000   0.667   0.000   0.000   0.000   0.000   0.000
  0.000   0.000   0.000   0.667   0.000   0.000   0.000   0.000
  0.000   0.000   0.000   0.000   0.667   0.000   0.000   0.000
  0.000   0.000   0.000   0.000   0.000   0.000   0.000   0.000
  0.000   0.000   0.000   0.000   0.000   0.000   0.000   0.000
  0.000   0.000   0.000   0.000   0.000   0.000   0.000   0.000


----------------------------------------- Iteration    1(   3)  ---------------------------------------


     EDDAV:  cpu time    0.2560: real time    0.4244
       DOS:  cpu time    0.0010: real time    0.0004
    --------------------------------------------
      LOOP:  cpu time    0.2570: real time    0.4268

 eigenvalue-minimisations  :   182
 total energy-change (2. order) :-0.3720496E+00  (-0.3719888E+00)
 number of electron       8.0000000 magnetization 
 augmentation part        8.0000000 magnetization 

 Free energy of the ion-electron system (eV)
  ---------------------------------------------------
  alpha Z        PSCENC =         5.09113229
  Ewald energy   TEWEN  =       551.15197154
  -Hartree energ DENC   =      -777.06224061
  -exchange      EXHF   =         0.00000000
  -V(xc)+E(xc)   XCENC  =        27.46742246
  PAW double counting   =        75.66288619      -77.96384553
  entropy T*S    EENTRO =        -0.00871006
  eigenvalues    EBANDS =      -117.75391823
  atomic energy  EATOM  =       294.25444774
  Solvation  Ediel_sol  =         0.00000000
  ---------------------------------------------------
  free energy    TOTEN  =       -19.16085420 eV

  energy without entropy =      -19.15214414  energy(sigma->0) =      -19.15795085


--------------------------------------------------------------------------------------------------------




 average (electrostatic) potential at core
  the test charge radii are     0.6991
  (the norm of the test charge is              1.0000)
       1 -62.8987       2 -62.8987
 
 
 
 E-fermi :  -5.0000     XC(G=0):  -3.9366     alpha+bet : -3.1363


 k-point     1 :       0.0000    0.0000    0.0000
  band No.  band energies     occupation 
      1     -25.0256      2.00000
      2     -12.1749      2.00000
      3      -9.7070      2.00000
      4      -9.2320      2.00000
      5       1.2661      0.00000
      6       2.0099      0.00000
      7       2.5877      0.00000
      8       2.5927      0.00000
      9       3.6369      0.00000
     10       5.5875      0.00000
     11       6.3338      0.00000
     12       6.4849      0.00000
     13       7.7016      0.00000
     14      12.5204      0.00000

 k-point     2 :       0.3333    0.0000    0.0000
  band No.  band energies     occupation 
      1     -22.5586      2.00000
      2     -15.6083      2.00000
      3     -12.0019      2.00000
      4      -9.3355      2.00000
      5      -0.2628     -0.00000
      6       1.9417      0.00000
      7       4.7242      0.00000
      8       6.0321      0.00000
      9       7.1839      0.00000
     10       9.7033      0.00000
     11       9.7680      0.00000
     12      10.4159      0.00000
     13      11.1436      0.00000
     14      13.7378      0.00000

 k-point     3 :       0.0000    0.3333    0.0000
  band No.  band energies     occupation 
      1     -22.5607      2.00000
      2     -15.6837      2.00000
      3     -11.9033      2.00000
      4      -9.3113      2.00000
      5      -0.3352     -0.00000
      6       2.0130      0.00000
      7       4.7231      0.00000
      8       6.0334      0.00000
      9       7.1838      0.00000
     10       9.6082      0.00000
     11       9.7123      0.00000
     12      10.4663      0.00000
     13      11.1299      0.00000
     14      13.7881      0.00000

 k-point     4 :       0.3333    0.3333    0.0000
  band No.  band energies     occupation 
      1     -18.5732      2.00000
      2     -18.3784      2.00000
      3     -16.3193      2.00000
      4      -5.1043      1.76342
      5      -4.8957      0.23658
      6       7.2130      0.00000
      7       7.7831      0.00000
      8       8.0814      0.00000
      9       9.8899      0.00000
     10      12.4561      0.00000
     11      12.5560      0.00000
     12      13.1480      0.00000
     13      13.1741      0.00000
     14      13.6525      0.00000

 k-point     5 :      -0.3333    0.3333    0.0000
  band No.  band energies     occupation 
      1     -22.5563      2.00000
      2     -15.5097      2.00000
      3     -12.1328      2.00000
      4      -9.3640      2.00000
      5      -0.1765     -0.00000
      6       1.8874      0.00000
      7       4.7254      0.00000
      8       6.0308      0.00000
      9       7.1840      0.00000
     10       9.6936      0.00000
     11      10.0268      0.00000
     12      10.3730      0.00000
     13      11.1638      0.00000
     14      13.6976      0.00000


--------------------------------------------------------------------------------------------------------


 soft charge-density along one line, spin component           1
         0         1         2         3         4         5         6         7         8         9
 total charge-density along one line
 
 pseudopotential strength for first ion, spin component:           1
 10.479   0.027   0.001  -0.000  -0.000  -0.001   0.000   0.000
  0.027  -0.001  -0.000   0.000   0.000  -0.000   0.000   0.000
  0.001  -0.000  -4.632   0.000  -0.001  -0.003   0.000  -0.000
 -0.000   0.000   0.000  -4.598  -0.000   0.000   0.002  -0.000
 -0.000   0.000  -0.001  -0.000  -4.630  -0.000  -0.000  -0.003
 -0.001  -0.000  -0.003   0.000  -0.000  -0.776   0.000  -0.000
  0.000   0.000   0.000   0.002  -0.000   0.000  -0.775  -0.000
  0.000   0.000  -0.000  -0.000  -0.003  -0.000  -0.000  -0.776
 total augmentation occupancy for first ion, spin component:           1
  2.000   0.000   0.000   0.000   0.000   0.000   0.000   0.000
  0.000   0.000   0.000   0.000   0.000   0.000   0.000   0.000
  0.000   0.000   0.667   0.000   0.000   0.000   0.000   0.000
  0.000   0.000   0.000   0.667   0.000   0.000   0.000   0.000
  0.000   0.000   0.000   0.000   0.667   0.000   0.000   0.000
  0.000   0.000   0.000   0.000   0.000   0.000   0.000   0.000
  0.000   0.000   0.000   0.000   0.000   0.000   0.000   0.000
  0.000   0.000   0.000   0.000   0.000   0.000   0.000   0.000


----------------------------------------- Iteration    1(   4)  ---------------------------------------


     EDDAV:  cpu time    0.1630: real time    0.3550
       DOS:  cpu time    0.0010: real time    0.0009
    --------------------------------------------
      LOOP:  cpu time    0.1650: real time    0.3604

 eigenvalue-minimisations  :   168
 total energy-change (2. order) :-0.4091686E-03  (-0.4091690E-03)
 number of electron       8.0000000 magnetization 
 augmentation part        8.0000000 magnetization 

 Free energy of the ion-electron system (eV)
  ---------------------------------------------------
  alpha Z        PSCENC =         5.09113229
  Ewald energy   TEWEN  =       551.15197154
  -Hartree energ DENC   =      -777.06224061
  -exchange      EXHF   =         0.00000000
  -V(xc)+E(xc)   XCENC  =        27.46742246
  PAW double counting   =        75.66288619      -77.96384553
  entropy T*S    EENTRO =        -0.00871020
  eigenvalues    EBANDS =      -117.75432726
  atomic energy  EATOM  =       294.25444774
  Solvation  Ediel_sol  =         0.00000000
  ---------------------------------------------------
  free energy    TOTEN  =       -19.16126337 eV

  energy without entropy =      -19.15255317  energy(sigma->0) =      -19.15835997


--------------------------------------------------------------------------------------------------------




 average (electrostatic) potential at core
  the test charge radii are     0.6991
  (the norm of the test charge is              1.0000)
       1 -62.8987       2 -62.8987
 
 
 
 E-fermi :  -5.0001     XC(G=0):  -3.9366     alpha+bet : -3.1363


 k-point     1 :       0.0000    0.0000    0.0000
  band No.  band energies     occupation 
      1     -25.0256      2.00000
      2     -12.1749      2.00000
      3      -9.7073      2.00000
      4      -9.2322      2.00000
      5       1.2661      0.00000
      6       2.0083      0.00000
      7       2.5877      0.00000
      8       2.5911      0.00000
      9       3.6369      0.00000
     10       5.5843      0.00000
     11       6.3329      0.00000
     12       6.4848      0.00000
     13       7.7016      0.00000
     14      12.5195      0.00000

 k-point     2 :       0.3333    0.0000    0.0000
  band No.  band energies     occupation 
      1     -22.5586      2.00000
      2     -15.6083      2.00000
      3     -12.0020      2.00000
      4      -9.3355      2.00000
      5      -0.2630     -0.00000
      6       1.9413      0.00000
      7       4.7242      0.00000
      8       6.0320      0.00000
      9       7.1839      0.00000
     10       9.7032      0.00000
     11       9.7608      0.00000
     12      10.4120      0.00000
     13      11.1435      0.00000
     14      13.7348      0.00000

 k-point     3 :       0.0000    0.3333    0.0000
  band No.  band energies     occupation 
      1     -22.5607      2.00000
      2     -15.6838      2.00000
      3     -11.9034      2.00000
      4      -9.3113      2.00000
      5      -0.3357     -0.00000
      6       2.0117      0.00000
      7       4.7231      0.00000
      8       6.0333      0.00000
      9       7.1837      0.00000
     10       9.6048      0.00000
     11       9.7117      0.00000
     12      10.4629      0.00000
     13      11.1290      0.00000
     14      13.7846      0.00000

 k-point     4 :       0.3333    0.3333    0.0000
  band No.  band energies     occupation 
      1     -18.5733      2.00000
      2     -18.3784      2.00000
      3     -16.3193      2.00000
      4      -5.1044      1.76341
      5      -4.8958      0.23659
      6       7.2127      0.00000
      7       7.7722      0.00000
      8       8.0676      0.00000
      9       9.8830      0.00000
     10      12.4444      0.00000
     11      12.5023      0.00000
     12      13.1355      0.00000
     13      13.1421      0.00000
     14      13.5262      0.00000

 k-point     5 :      -0.3333    0.3333    0.0000
  band No.  band energies     occupation 
      1     -22.5563      2.00000
      2     -15.5097      2.00000
      3     -12.1329      2.00000
      4      -9.3640      2.00000
      5      -0.1767     -0.00000
      6       1.8869      0.00000
      7       4.7254      0.00000
      8       6.0306      0.00000
      9       7.1838      0.00000
     10       9.6930      0.00000
     11       9.9234      0.00000
     12      10.3406      0.00000
     13      11.1610      0.00000
     14      13.6760      0.00000


--------------------------------------------------------------------------------------------------------


 soft charge-density along one line, spin component           1
         0         1         2         3         4         5         6         7         8         9
 total charge-density along one line
 
 pseudopotential strength for first ion, spin component:           1
 10.479   0.027   0.001  -0.000  -0.000  -0.001   0.000   0.000
  0.027  -0.001  -0.000   0.000   0.000  -0.000   0.000   0.000
  0.001  -0.000  -4.632   0.000  -0.001  -0.003   0.000  -0.000
 -0.000   0.000   0.000  -4.598  -0.000   0.000   0.002  -0.000
 -0.000   0.000  -0.001  -0.000  -4.630  -0.000  -0.000  -0.003
 -0.001  -0.000  -0.003   0.000  -0.000  -0.776   0.000  -0.000
  0.000   0.000   0.000   0.002  -0.000   0.000  -0.775  -0.000
  0.000   0.000  -0.000  -0.000  -0.003  -0.000  -0.000  -0.776
 total augmentation occupancy for first ion, spin component:           1
  2.000   0.000   0.000   0.000   0.000   0.000   0.000   0.000
  0.000   0.000   0.000   0.000   0.000   0.000   0.000   0.000
  0.000   0.000   0.667   0.000   0.000   0.000   0.000   0.000
  0.000   0.000   0.000   0.667   0.000   0.000   0.000   0.000
  0.000   0.000   0.000   0.000   0.667   0.000   0.000   0.000
  0.000   0.000   0.000   0.000   0.000   0.000   0.000   0.000
  0.000   0.000   0.000   0.000   0.000   0.000   0.000   0.000
  0.000   0.000   0.000   0.000   0.000   0.000   0.000   0.000


----------------------------------------- Iteration    1(   5)  ---------------------------------------


     EDDAV:  cpu time    0.1710: real time    0.3627
       DOS:  cpu time    0.0010: real time    0.0012
    CHARGE:  cpu time    0.0080: real time    0.0181
    MIXING:  cpu time    0.0020: real time    0.0014
    --------------------------------------------
      LOOP:  cpu time    0.1830: real time    0.3854

 eigenvalue-minimisations  :   154
 total energy-change (2. order) :-0.1631885E-05  (-0.1631816E-05)
 number of electron       8.0000000 magnetization 
 augmentation part        0.2144429 magnetization 

 Broyden mixing:
  rms(total) = 0.55025E+00    rms(broyden)= 0.55018E+00
  rms(prec ) = 0.67716E+00
  weight for this iteration     100.00

 Free energy of the ion-electron system (eV)
  ---------------------------------------------------
  alpha Z        PSCENC =         5.09113229
  Ewald energy   TEWEN  =       551.15197154
  -Hartree energ DENC   =      -777.06224061
  -exchange      EXHF   =         0.00000000
  -V(xc)+E(xc)   XCENC  =        27.46742246
  PAW double counting   =        75.66288619      -77.96384553
  entropy T*S    EENTRO =        -0.00871021
  eigenvalues    EBANDS =      -117.75432889
  atomic energy  EATOM  =       294.25444774
  Solvation  Ediel_sol  =         0.00000000
  ---------------------------------------------------
  free energy    TOTEN  =       -19.16126501 eV

  energy without entropy =      -19.15255480  energy(sigma->0) =      -19.15836160


--------------------------------------------------------------------------------------------------------




 average (electrostatic) potential at core
  the test charge radii are     0.6991
  (the norm of the test charge is              1.0000)
       1 -62.8987       2 -62.8987
 
 
 
 E-fermi :  -5.0001     XC(G=0):  -3.9366     alpha+bet : -3.1363


 k-point     1 :       0.0000    0.0000    0.0000
  band No.  band energies     occupation 
      1     -25.0256      2.00000
      2     -12.1749      2.00000
      3      -9.7073      2.00000
      4      -9.2322      2.00000
      5       1.2661      0.00000
      6       2.0083      0.00000
      7       2.5877      0.00000
      8       2.5911      0.00000
      9       3.6369      0.00000
     10       5.5842      0.00000
     11       6.3329      0.00000
     12       6.4848      0.00000
     13       7.7016      0.00000
     14      12.5194      0.00000

 k-point     2 :       0.3333    0.0000    0.0000
  band No.  band energies     occupation 
      1     -22.5586      2.00000
      2     -15.6083      2.00000
      3     -12.0020      2.00000
      4      -9.3355      2.00000
      5      -0.2630     -0.00000
      6       1.9413      0.00000
      7       4.7242      0.00000
      8       6.0320      0.00000
      9       7.1839      0.00000
     10       9.7032      0.00000
     11       9.7602      0.00000
     12      10.4116      0.00000
     13      11.1435      0.00000
     14      13.7345      0.00000

 k-point     3 :       0.0000    0.3333    0.0000
  band No.  band energies     occupation 
      1     -22.5607      2.00000
      2     -15.6838      2.00000
      3     -11.9034      2.00000
      4      -9.3113      2.00000
      5      -0.3357     -0.00000
      6       2.0117      0.00000
      7       4.7231      0.00000
      8       6.0333      0.00000
      9       7.1837      0.00000
     10       9.6047      0.00000
     11       9.7117      0.00000
     12      10.4628      0.00000
     13      11.1290      0.00000
     14      13.7845      0.00000

 k-point     4 :       0.3333    0.3333    0.0000
  band No.  band energies     occupation 
      1     -18.5733      2.00000
      2     -18.3784      2.00000
      3     -16.3193      2.00000
      4      -5.1044      1.76341
      5      -4.8958      0.23659
      6       7.2127      0.00000
      7       7.7721      0.00000
      8       8.0675      0.00000
      9       9.8830      0.00000
     10      12.4437      0.00000
     11      12.5008      0.00000
     12      13.1336      0.00000
     13      13.1407      0.00000
     14      13.5131      0.00000

 k-point     5 :      -0.3333    0.3333    0.0000
  band No.  band energies     occupation 
      1     -22.5563      2.00000
      2     -15.5097      2.00000
      3     -12.1329      2.00000
      4      -9.3640      2.00000
      5      -0.1767     -0.00000
      6       1.8869      0.00000
      7       4.7254      0.00000
      8       6.0306      0.00000
      9       7.1838      0.00000
     10       9.6930      0.00000
     11       9.9215      0.00000
     12      10.3402      0.00000
     13      11.1609      0.00000
     14      13.6750      0.00000


--------------------------------------------------------------------------------------------------------


 soft charge-density along one line, spin component           1
         0         1         2         3         4         5         6         7         8         9
 total charge-density along one line
 
 pseudopotential strength for first ion, spin component:           1
 10.479   0.027   0.001  -0.000  -0.000  -0.001   0.000   0.000
  0.027  -0.001  -0.000   0.000   0.000  -0.000   0.000   0.000
  0.001  -0.000  -4.632   0.000  -0.001  -0.003   0.000  -0.000
 -0.000   0.000   0.000  -4.598  -0.000   0.000   0.002  -0.000
 -0.000   0.000  -0.001  -0.000  -4.630  -0.000  -0.000  -0.003
 -0.001  -0.000  -0.003   0.000  -0.000  -0.776   0.000  -0.000
  0.000   0.000   0.000   0.002  -0.000   0.000  -0.775  -0.000
  0.000   0.000  -0.000  -0.000  -0.003  -0.000  -0.000  -0.776
 total augmentation occupancy for first ion, spin component:           1
  1.494  -0.938   0.009   0.000  -0.005   0.003  -0.000  -0.002
 -0.938   0.739  -0.009  -0.000   0.005  -0.003   0.000   0.002
  0.009  -0.009   1.296  -0.000   0.004   0.210  -0.000   0.002
  0.000  -0.000  -0.000   1.055  -0.000   0.000   0.077   0.000
 -0.005   0.005   0.004  -0.000   1.282   0.002  -0.000   0.204
  0.003  -0.003   0.210   0.000   0.002   0.039  -0.000   0.001
 -0.000   0.000  -0.000   0.077  -0.000  -0.000   0.008  -0.000
 -0.002   0.002   0.002   0.000   0.204   0.001  -0.000   0.038


----------------------------------------- Iteration    1(   6)  ---------------------------------------


    POTLOK:  cpu time    0.0050: real time    0.0051
    SETDIJ:  cpu time    0.0040: real time    0.0033
     EDDAV:  cpu time    0.1760: real time    0.3832
       DOS:  cpu time    0.0010: real time    0.0013
    CHARGE:  cpu time    0.0100: real time    0.0103
    MIXING:  cpu time    0.0010: real time    0.0005
    --------------------------------------------
      LOOP:  cpu time    0.1970: real time    0.4059

 eigenvalue-minimisations  :   182
 total energy-change (2. order) : 0.8895032E+00  (-0.8530909E-01)
 number of electron       8.0000000 magnetization 
 augmentation part        0.2054133 magnetization 

 Broyden mixing:
  rms(total) = 0.29171E+00    rms(broyden)= 0.29168E+00
  rms(prec ) = 0.36177E+00
  weight for this iteration     100.00

 eigenvalues of (default mixing * dielectric matrix)
  average eigenvalue GAMMA=   2.0588
  2.0588

 Free energy of the ion-electron system (eV)
  ---------------------------------------------------
  alpha Z        PSCENC =         5.09113229
  Ewald energy   TEWEN  =       551.15197154
  -Hartree energ DENC   =      -787.57122806
  -exchange      EXHF   =         0.00000000
  -V(xc)+E(xc)   XCENC  =        27.96078294
  PAW double counting   =       102.27296348     -104.74900270
  entropy T*S    EENTRO =        -0.01235482
  eigenvalues    EBANDS =      -106.67047426
  atomic energy  EATOM  =       294.25444774
  Solvation  Ediel_sol  =         0.00000000
  ---------------------------------------------------
  free energy    TOTEN  =       -18.27176183 eV

  energy without entropy =      -18.25940701  energy(sigma->0) =      -18.26764356


--------------------------------------------------------------------------------------------------------




 average (electrostatic) potential at core
  the test charge radii are     0.6991
  (the norm of the test charge is              1.0000)
       1 -60.5645       2 -60.5645
 
 
 
 E-fermi :  -3.9243     XC(G=0):  -4.1651     alpha+bet : -3.1363


 k-point     1 :       0.0000    0.0000    0.0000
  band No.  band energies     occupation 
      1     -23.6872      2.00000
      2     -11.2537      2.00000
      3      -7.9443      2.00000
      4      -7.5458      2.00000
      5       1.0520     -0.00000
      6       2.2706      0.00000
      7       3.1005      0.00000
      8       3.5043      0.00000
      9       4.0340      0.00000
     10       6.0886      0.00000
     11       6.9614      0.00000
     12       7.3637      0.00000
     13       7.7411      0.00000
     14      12.2543      0.00000

 k-point     2 :       0.3333    0.0000    0.0000
  band No.  band energies     occupation 
      1     -21.1758      2.00000
      2     -14.0844      2.00000
      3     -10.3588      2.00000
      4      -8.3609      2.00000
      5       0.8641     -0.00000
      6       3.2195      0.00000
      7       4.5550      0.00000
      8       5.7623      0.00000
      9       6.6471      0.00000
     10       9.3792      0.00000
     11      10.7916      0.00000
     12      11.4160      0.00000
     13      11.7290      0.00000
     14      13.8486      0.00000

 k-point     3 :       0.0000    0.3333    0.0000
  band No.  band energies     occupation 
      1     -21.1791      2.00000
      2     -14.1392      2.00000
      3     -10.2793      2.00000
      4      -8.3411      2.00000
      5       0.8031     -0.00000
      6       3.2624      0.00000
      7       4.5545      0.00000
      8       5.7620      0.00000
      9       6.6467      0.00000
     10       9.3838      0.00000
     11      10.7952      0.00000
     12      11.2671      0.00000
     13      11.7574      0.00000
     14      13.8884      0.00000

 k-point     4 :       0.3333    0.3333    0.0000
  band No.  band energies     occupation 
      1     -17.0472      2.00000
      2     -16.9401      2.00000
      3     -14.8697      2.00000
      4      -4.0136      1.67856
      5      -3.8350      0.32144
      6       7.5030      0.00000
      7       9.0119      0.00000
      8       9.2810      0.00000
      9      10.3990      0.00000
     10      12.4117      0.00000
     11      12.4880      0.00000
     12      12.8434      0.00000
     13      12.8471      0.00000
     14      13.2125      0.00000

 k-point     5 :      -0.3333    0.3333    0.0000
  band No.  band energies     occupation 
      1     -21.1719      2.00000
      2     -14.0146      2.00000
      3     -10.4618      2.00000
      4      -8.3844      2.00000
      5       0.9376     -0.00000
      6       3.1920      0.00000
      7       4.5558      0.00000
      8       5.7629      0.00000
      9       6.6475      0.00000
     10       9.3737      0.00000
     11      10.7851      0.00000
     12      11.5683      0.00000
     13      11.6905      0.00000
     14      13.8002      0.00000


--------------------------------------------------------------------------------------------------------


 soft charge-density along one line, spin component           1
         0         1         2         3         4         5         6         7         8         9
 total charge-density along one line
 
 pseudopotential strength for first ion, spin component:           1
 10.364   0.023   0.000  -0.000  -0.000  -0.000   0.000   0.000
  0.023  -0.001   0.000   0.000  -0.000  -0.000   0.000   0.000
  0.000   0.000  -4.487   0.000  -0.000  -0.012   0.000  -0.000
 -0.000   0.000   0.000  -4.465  -0.000   0.000  -0.008   0.000
 -0.000  -0.000  -0.000  -0.000  -4.486  -0.000   0.000  -0.012
 -0.000  -0.000  -0.012   0.000  -0.000  -0.774  -0.000  -0.000
  0.000   0.000   0.000  -0.008   0.000  -0.000  -0.774  -0.000
  0.000   0.000  -0.000   0.000  -0.012  -0.000  -0.000  -0.774
 total augmentation occupancy for first ion, spin component:           1
  1.468  -1.058   0.008   0.000  -0.005   0.002   0.000  -0.002
 -1.058   0.916  -0.006   0.000   0.004  -0.002   0.000   0.002
  0.008  -0.006   1.265   0.000   0.005   0.219  -0.000   0.002
  0.000   0.000   0.000   0.996   0.000  -0.000   0.093   0.000
 -0.005   0.004   0.005   0.000   1.250   0.002  -0.000   0.214
  0.002  -0.002   0.219  -0.000   0.002   0.044  -0.000   0.000
  0.000   0.000  -0.000   0.093  -0.000  -0.000   0.011  -0.000
 -0.002   0.002   0.002   0.000   0.214   0.000  -0.000   0.042


----------------------------------------- Iteration    1(   7)  ---------------------------------------


    POTLOK:  cpu time    0.0050: real time    0.0051
    SETDIJ:  cpu time    0.0030: real time    0.0027
     EDDAV:  cpu time    0.2110: real time    0.3838
       DOS:  cpu time    0.0000: real time    0.0007
    CHARGE:  cpu time    0.0060: real time    0.0056
    MIXING:  cpu time    0.0000: real time    0.0004
    --------------------------------------------
      LOOP:  cpu time    0.2260: real time    0.4007

 eigenvalue-minimisations  :   196
 total energy-change (2. order) : 0.3427096E+00  (-0.1023613E+00)
 number of electron       8.0000000 magnetization 
 augmentation part        0.1955522 magnetization 

 Broyden mixing:
  rms(total) = 0.49987E-01    rms(broyden)= 0.49804E-01
  rms(prec ) = 0.67178E-01
  weight for this iteration     100.00

 eigenvalues of (default mixing * dielectric matrix)
  average eigenvalue GAMMA=   2.2595
  2.1027  2.4163

 Free energy of the ion-electron system (eV)
  ---------------------------------------------------
  alpha Z        PSCENC =         5.09113229
  Ewald energy   TEWEN  =       551.15197154
  -Hartree energ DENC   =      -800.90286796
  -exchange      EXHF   =         0.00000000
  -V(xc)+E(xc)   XCENC  =        28.57772556
  PAW double counting   =       136.47676900     -139.10321723
  entropy T*S    EENTRO =        -0.01497263
  eigenvalues    EBANDS =       -93.46004054
  atomic energy  EATOM  =       294.25444774
  Solvation  Ediel_sol  =         0.00000000
  ---------------------------------------------------
  free energy    TOTEN  =       -17.92905223 eV

  energy without entropy =      -17.91407960  energy(sigma->0) =      -17.92406135


--------------------------------------------------------------------------------------------------------




 average (electrostatic) potential at core
  the test charge radii are     0.6991
  (the norm of the test charge is              1.0000)
       1 -58.0059       2 -58.0055
 
 
 
 E-fermi :  -2.6459     XC(G=0):  -4.1965     alpha+bet : -3.1363


 k-point     1 :       0.0000    0.0000    0.0000
  band No.  band energies     occupation 
      1     -22.0686      2.00000
      2     -10.1350      2.00000
      3      -5.8817      2.00000
      4      -5.5523      2.00000
      5       0.8944     -0.00000
      6       2.0095     -0.00000
      7       2.8916      0.00000
      8       5.2726      0.00000
      9       5.7572      0.00000
     10       5.9564      0.00000
     11       7.1699      0.00000
     12       8.5681      0.00000
     13       9.3922      0.00000
     14      12.1640      0.00000

 k-point     2 :       0.3333    0.0000    0.0000
  band No.  band energies     occupation 
      1     -19.5126      2.00000
      2     -12.2744      2.00000
      3      -8.4166      2.00000
      4      -7.1884      2.00000
      5       2.1874     -0.00000
      6       4.3881      0.00000
      7       4.8211      0.00000
      8       5.5424      0.00000
      9       6.4411      0.00000
     10       9.3073      0.00000
     11      10.6263      0.00000
     12      13.0289      0.00000
     13      13.3467      0.00000
     14      14.1599      0.00000

 k-point     3 :       0.0000    0.3333    0.0000
  band No.  band energies     occupation 
      1     -19.5167      2.00000
      2     -12.3111      2.00000
      3      -8.3552      2.00000
      4      -7.1721      2.00000
      5       2.1357     -0.00000
      6       4.3875      0.00000
      7       4.8450      0.00000
      8       5.5407      0.00000
      9       6.4410      0.00000
     10       9.3092      0.00000
     11      10.6261      0.00000
     12      13.0436      0.00000
     13      13.2044      0.00000
     14      14.1906      0.00000

 k-point     4 :       0.3333    0.3333    0.0000
  band No.  band energies     occupation 
      1     -15.2494      2.00000
      2     -15.2156      2.00000
      3     -13.1213      2.00000
      4      -2.7239      1.60810
      5      -2.5678      0.39190
      6       7.9966      0.00000
      7      10.1641      0.00000
      8      10.3480      0.00000
      9      10.9059      0.00000
     10      12.5494      0.00000
     11      12.6190      0.00000
     12      12.6326      0.00000
     13      12.6542      0.00000
     14      13.1142      0.00000

 k-point     5 :      -0.3333    0.3333    0.0000
  band No.  band energies     occupation 
      1     -19.5079      2.00000
      2     -12.2284      2.00000
      3      -8.4951      2.00000
      4      -7.2083      2.00000
      5       2.2507     -0.00000
      6       4.3898      0.00000
      7       4.8127      0.00000
      8       5.5446      0.00000
      9       6.4413      0.00000
     10       9.3049      0.00000
     11      10.6261      0.00000
     12      13.0059      0.00000
     13      13.4921      0.00000
     14      14.1219      0.00000


--------------------------------------------------------------------------------------------------------


 soft charge-density along one line, spin component           1
         0         1         2         3         4         5         6         7         8         9
 total charge-density along one line
 
 pseudopotential strength for first ion, spin component:           1
 10.225   0.019  -0.001  -0.000   0.000   0.000   0.000  -0.000
  0.019  -0.002   0.000   0.000  -0.000   0.000   0.000  -0.000
 -0.001   0.000  -4.332  -0.000  -0.000  -0.019  -0.000  -0.000
 -0.000   0.000  -0.000  -4.325   0.000  -0.000  -0.016  -0.000
  0.000  -0.000  -0.000   0.000  -4.332  -0.000  -0.000  -0.019
  0.000   0.000  -0.019  -0.000  -0.000  -0.772   0.000   0.000
  0.000   0.000  -0.000  -0.016  -0.000   0.000  -0.772   0.000
 -0.000  -0.000  -0.000  -0.000  -0.019   0.000   0.000  -0.772
 total augmentation occupancy for first ion, spin component:           1
  1.441  -1.162   0.006  -0.000  -0.004   0.002   0.000  -0.001
 -1.162   1.092  -0.007   0.000   0.005  -0.003  -0.000   0.002
  0.006  -0.007   1.232  -0.000   0.005   0.229   0.000   0.002
 -0.000   0.000  -0.000   0.932  -0.000   0.000   0.107   0.000
 -0.004   0.005   0.005  -0.000   1.217   0.002  -0.000   0.224
  0.002  -0.003   0.229   0.000   0.002   0.048   0.000   0.000
  0.000  -0.000   0.000   0.107  -0.000   0.000   0.014  -0.000
 -0.001   0.002   0.002   0.000   0.224   0.000  -0.000   0.047


----------------------------------------- Iteration    1(   8)  ---------------------------------------


    POTLOK:  cpu time    0.0040: real time    0.0044
    SETDIJ:  cpu time    0.0030: real time    0.0021
     EDDAV:  cpu time    0.2170: real time    0.3699
       DOS:  cpu time    0.0010: real time    0.0010
    CHARGE:  cpu time    0.0110: real time    0.0113
    MIXING:  cpu time    0.0010: real time    0.0003
    --------------------------------------------
      LOOP:  cpu time    0.2380: real time    0.3909

 eigenvalue-minimisations  :   210
 total energy-change (2. order) : 0.9798899E-02  (-0.7374452E-03)
 number of electron       8.0000000 magnetization 
 augmentation part        0.1954143 magnetization 

 Broyden mixing:
  rms(total) = 0.77646E-02    rms(broyden)= 0.77123E-02
  rms(prec ) = 0.26082E-01
  weight for this iteration     100.00

 eigenvalues of (default mixing * dielectric matrix)
  average eigenvalue GAMMA=   2.0130
  1.3208  2.6675  2.0507

 Free energy of the ion-electron system (eV)
  ---------------------------------------------------
  alpha Z        PSCENC =         5.09113229
  Ewald energy   TEWEN  =       551.15197154
  -Hartree energ DENC   =      -803.54053481
  -exchange      EXHF   =         0.00000000
  -V(xc)+E(xc)   XCENC  =        28.62142796
  PAW double counting   =       138.03000882     -140.60167963
  entropy T*S    EENTRO =        -0.01411245
  eigenvalues    EBANDS =       -90.91191479
  atomic energy  EATOM  =       294.25444774
  Solvation  Ediel_sol  =         0.00000000
  ---------------------------------------------------
  free energy    TOTEN  =       -17.91925333 eV

  energy without entropy =      -17.90514088  energy(sigma->0) =      -17.91454918


--------------------------------------------------------------------------------------------------------




 average (electrostatic) potential at core
  the test charge radii are     0.6991
  (the norm of the test charge is              1.0000)
       1 -57.8169       2 -57.8190
 
 
 
 E-fermi :  -2.3528     XC(G=0):  -4.1940     alpha+bet : -3.1363


 k-point     1 :       0.0000    0.0000    0.0000
  band No.  band energies     occupation 
      1     -21.7377      2.00000
      2      -9.8391      2.00000
      3      -5.5695      2.00000
      4      -5.2238      2.00000
      5       0.9470     -0.00000
      6       2.0643     -0.00000
      7       2.6951     -0.00000
      8       5.5923      0.00000
      9       5.8780      0.00000
     10       6.0899      0.00000
     11       7.1233      0.00000
     12       8.8621      0.00000
     13       9.6949      0.00000
     14      12.1499      0.00000

 k-point     2 :       0.3333    0.0000    0.0000
  band No.  band energies     occupation 
      1     -19.1832      2.00000
      2     -11.9479      2.00000
      3      -8.0926      2.00000
      4      -6.8936      2.00000
      5       2.4817     -0.00000
      6       4.4729      0.00000
      7       5.1394      0.00000
      8       5.6091      0.00000
      9       6.2397      0.00000
     10       9.2438      0.00000
     11      10.5853      0.00000
     12      13.2924      0.00000
     13      13.6594      0.00000
     14      14.3140      0.00000

 k-point     3 :       0.0000    0.3333    0.0000
  band No.  band energies     occupation 
      1     -19.1868      2.00000
      2     -11.9894      2.00000
      3      -8.0271      2.00000
      4      -6.8763      2.00000
      5       2.4271     -0.00000
      6       4.4724      0.00000
      7       5.1699      0.00000
      8       5.6074      0.00000
      9       6.2400      0.00000
     10       9.2454      0.00000
     11      10.5852      0.00000
     12      13.3042      0.00000
     13      13.5154      0.00000
     14      14.3441      0.00000

 k-point     4 :       0.3333    0.3333    0.0000
  band No.  band energies     occupation 
      1     -14.9369      2.00000
      2     -14.8825      2.00000
      3     -12.7804      2.00000
      4      -2.4346      1.63231
      5      -2.2710      0.36769
      6       8.3019      0.00000
      7      10.3920      0.00000
      8      10.5717      0.00000
      9      11.1414      0.00000
     10      12.4781      0.00000
     11      12.5636      0.00000
     12      12.6783      0.00000
     13      12.7008      0.00000
     14      12.9063      0.00000

 k-point     5 :      -0.3333    0.3333    0.0000
  band No.  band energies     occupation 
      1     -19.1789      2.00000
      2     -11.8969      2.00000
      3      -8.1756      2.00000
      4      -6.9143      2.00000
      5       2.5479     -0.00000
      6       4.4739      0.00000
      7       5.1256      0.00000
      8       5.6112      0.00000
      9       6.2396      0.00000
     10       9.2419      0.00000
     11      10.5851      0.00000
     12      13.2734      0.00000
     13      13.8065      0.00000
     14      14.2772      0.00000


--------------------------------------------------------------------------------------------------------


 soft charge-density along one line, spin component           1
         0         1         2         3         4         5         6         7         8         9
 total charge-density along one line
 
 pseudopotential strength for first ion, spin component:           1
 10.204   0.018  -0.000   0.000   0.000   0.000  -0.000  -0.000
  0.018  -0.002   0.000  -0.000  -0.000   0.000  -0.000  -0.000
 -0.000   0.000  -4.324   0.000  -0.000  -0.017   0.000  -0.000
  0.000  -0.000   0.000  -4.319   0.000   0.000  -0.014   0.000
  0.000  -0.000  -0.000   0.000  -4.324  -0.000   0.000  -0.017
  0.000   0.000  -0.017   0.000  -0.000  -0.772  -0.000   0.000
 -0.000  -0.000   0.000  -0.014   0.000  -0.000  -0.772  -0.000
 -0.000  -0.000  -0.000   0.000  -0.017   0.000  -0.000  -0.772
 total augmentation occupancy for first ion, spin component:           1
  1.442  -1.148   0.006   0.000  -0.004   0.003   0.000  -0.002
 -1.148   1.070  -0.010  -0.000   0.006  -0.003  -0.000   0.002
  0.006  -0.010   1.233   0.000   0.005   0.228  -0.000   0.002
  0.000  -0.000   0.000   0.930  -0.000   0.000   0.106  -0.000
 -0.004   0.006   0.005  -0.000   1.218   0.002  -0.000   0.223
  0.003  -0.003   0.228   0.000   0.002   0.048  -0.000   0.000
  0.000  -0.000  -0.000   0.106  -0.000  -0.000   0.014  -0.000
 -0.002   0.002   0.002  -0.000   0.223   0.000  -0.000   0.047


----------------------------------------- Iteration    1(   9)  ---------------------------------------


    POTLOK:  cpu time    0.0050: real time    0.0045
    SETDIJ:  cpu time    0.0030: real time    0.0025
     EDDAV:  cpu time    0.2830: real time    0.4564
       DOS:  cpu time    0.0020: real time    0.0016
    CHARGE:  cpu time    0.0040: real time    0.0046
    MIXING:  cpu time    0.0000: real time    0.0004
    --------------------------------------------
      LOOP:  cpu time    0.2970: real time    0.4721

 eigenvalue-minimisations  :   252
 total energy-change (2. order) : 0.2006340E-02  (-0.1251233E-03)
 number of electron       8.0000000 magnetization 
 augmentation part        0.1951511 magnetization 

 Broyden mixing:
  rms(total) = 0.69880E-02    rms(broyden)= 0.69806E-02
  rms(prec ) = 0.20269E-01
  weight for this iteration     100.00

 eigenvalues of (default mixing * dielectric matrix)
  average eigenvalue GAMMA=   1.8000
  2.7351  2.0956  1.6849  0.6843

 Free energy of the ion-electron system (eV)
  ---------------------------------------------------
  alpha Z        PSCENC =         5.09113229
  Ewald energy   TEWEN  =       551.15197154
  -Hartree energ DENC   =      -804.78521186
  -exchange      EXHF   =         0.00000000
  -V(xc)+E(xc)   XCENC  =        28.64495324
  PAW double counting   =       138.31390227     -140.88336687
  entropy T*S    EENTRO =        -0.01428358
  eigenvalues    EBANDS =       -89.69079177
  atomic energy  EATOM  =       294.25444774
  Solvation  Ediel_sol  =         0.00000000
  ---------------------------------------------------
  free energy    TOTEN  =       -17.91724699 eV

  energy without entropy =      -17.90296341  energy(sigma->0) =      -17.91248580


--------------------------------------------------------------------------------------------------------




 average (electrostatic) potential at core
  the test charge radii are     0.6991
  (the norm of the test charge is              1.0000)
       1 -57.6652       2 -57.6598
 
 
 
 E-fermi :  -2.2104     XC(G=0):  -4.1563     alpha+bet : -3.1363


 k-point     1 :       0.0000    0.0000    0.0000
  band No.  band energies     occupation 
      1     -21.5833      2.00000
      2      -9.7015      2.00000
      3      -5.4080      2.00000
      4      -5.0661      2.00000
      5       0.9820     -0.00000
      6       2.1187     -0.00000
      7       2.6660     -0.00000
      8       5.7495      0.00000
      9       5.8804      0.00000
     10       6.2444      0.00000
     11       7.1719      0.00000
     12       9.0131      0.00000
     13       9.8474      0.00000
     14      12.1913      0.00000

 k-point     2 :       0.3333    0.0000    0.0000
  band No.  band energies     occupation 
      1     -19.0281      2.00000
      2     -11.7909      2.00000
      3      -7.9339      2.00000
      4      -6.7544      2.00000
      5       2.6243     -0.00000
      6       4.5157      0.00000
      7       5.2880      0.00000
      8       5.6653      0.00000
      9       6.2116      0.00000
     10       9.2541      0.00000
     11      10.6352      0.00000
     12      13.4135      0.00000
     13      13.8167      0.00000
     14      14.3885      0.00000

 k-point     3 :       0.0000    0.3333    0.0000
  band No.  band energies     occupation 
      1     -19.0319      2.00000
      2     -11.8312      2.00000
      3      -7.8696      2.00000
      4      -6.7373      2.00000
      5       2.5704     -0.00000
      6       4.5151      0.00000
      7       5.3168      0.00000
      8       5.6635      0.00000
      9       6.2122      0.00000
     10       9.2555      0.00000
     11      10.6351      0.00000
     12      13.4250      0.00000
     13      13.6730      0.00000
     14      14.4179      0.00000

 k-point     4 :       0.3333    0.3333    0.0000
  band No.  band energies     occupation 
      1     -14.7787      2.00000
      2     -14.7290      2.00000
      3     -12.6229      2.00000
      4      -2.2915      1.62758
      5      -2.1294      0.37242
      6       8.4116      0.00000
      7      10.4983      0.00000
      8      10.6735      0.00000
      9      11.2223      0.00000
     10      12.4918      0.00000
     11      12.5722      0.00000
     12      12.7303      0.00000
     13      12.7550      0.00000
     14      12.8879      0.00000

 k-point     5 :      -0.3333    0.3333    0.0000
  band No.  band energies     occupation 
      1     -19.0238      2.00000
      2     -11.7410      2.00000
      3      -8.0159      2.00000
      4      -6.7749      2.00000
      5       2.6899     -0.00000
      6       4.5167      0.00000
      7       5.2756      0.00000
      8       5.6675      0.00000
      9       6.2113      0.00000
     10       9.2524      0.00000
     11      10.6351      0.00000
     12      13.3952      0.00000
     13      13.9635      0.00000
     14      14.3524      0.00000


--------------------------------------------------------------------------------------------------------


 soft charge-density along one line, spin component           1
         0         1         2         3         4         5         6         7         8         9
 total charge-density along one line
 
 pseudopotential strength for first ion, spin component:           1
 10.194   0.018  -0.000   0.000   0.000   0.000  -0.000  -0.000
  0.018  -0.002   0.000  -0.000  -0.000   0.000  -0.000  -0.000
 -0.000   0.000  -4.316   0.000  -0.000  -0.017   0.000  -0.000
  0.000  -0.000   0.000  -4.311  -0.000   0.000  -0.014   0.000
  0.000  -0.000  -0.000  -0.000  -4.316  -0.000   0.000  -0.017
  0.000   0.000  -0.017   0.000  -0.000  -0.772   0.000   0.000
 -0.000  -0.000   0.000  -0.014   0.000   0.000  -0.772  -0.000
 -0.000  -0.000  -0.000   0.000  -0.017   0.000  -0.000  -0.772
 total augmentation occupancy for first ion, spin component:           1
  1.442  -1.145   0.006   0.000  -0.004   0.003  -0.000  -0.002
 -1.145   1.066  -0.009   0.000   0.005  -0.003   0.000   0.002
  0.006  -0.009   1.233   0.000   0.005   0.228  -0.000   0.002
  0.000   0.000   0.000   0.931  -0.000   0.000   0.106   0.000
 -0.004   0.005   0.005  -0.000   1.218   0.002  -0.000   0.223
  0.003  -0.003   0.228   0.000   0.002   0.048  -0.000   0.000
 -0.000   0.000  -0.000   0.106  -0.000  -0.000   0.014  -0.000
 -0.002   0.002   0.002   0.000   0.223   0.000  -0.000   0.047


----------------------------------------- Iteration    1(  10)  ---------------------------------------


    POTLOK:  cpu time    0.0040: real time    0.0044
    SETDIJ:  cpu time    0.0030: real time    0.0022
     EDDAV:  cpu time    0.2750: real time    0.5217
       DOS:  cpu time    0.0030: real time    0.0034
    CHARGE:  cpu time    0.0060: real time    0.0056
    MIXING:  cpu time    0.0010: real time    0.0007
    --------------------------------------------
      LOOP:  cpu time    0.2930: real time    0.5402

 eigenvalue-minimisations  :   154
 total energy-change (2. order) : 0.1330256E-02  (-0.2372130E-03)
 number of electron       8.0000000 magnetization 
 augmentation part        0.1949737 magnetization 

 Broyden mixing:
  rms(total) = 0.11737E-01    rms(broyden)= 0.11712E-01
  rms(prec ) = 0.17556E-01
  weight for this iteration     100.00

 eigenvalues of (default mixing * dielectric matrix)
  average eigenvalue GAMMA=   1.8122
  3.2238  2.4913  1.9704  0.9748  0.4008

 Free energy of the ion-electron system (eV)
  ---------------------------------------------------
  alpha Z        PSCENC =         5.09113229
  Ewald energy   TEWEN  =       551.15197154
  -Hartree energ DENC   =      -806.55247251
  -exchange      EXHF   =         0.00000000
  -V(xc)+E(xc)   XCENC  =        28.66464011
  PAW double counting   =       137.60817934     -140.17982583
  entropy T*S    EENTRO =        -0.01448924
  eigenvalues    EBANDS =       -87.93950018
  atomic energy  EATOM  =       294.25444774
  Solvation  Ediel_sol  =         0.00000000
  ---------------------------------------------------
  free energy    TOTEN  =       -17.91591673 eV

  energy without entropy =      -17.90142750  energy(sigma->0) =      -17.91108699


--------------------------------------------------------------------------------------------------------




 average (electrostatic) potential at core
  the test charge radii are     0.6991
  (the norm of the test charge is              1.0000)
       1 -57.4210       2 -57.4518
 
 
 
 E-fermi :  -1.9968     XC(G=0):  -4.0373     alpha+bet : -3.1363


 k-point     1 :       0.0000    0.0000    0.0000
  band No.  band energies     occupation 
      1     -21.3626      2.00000
      2      -9.4936      2.00000
      3      -5.1833      2.00000
      4      -4.8464      2.00000
      5       1.1052     -0.00000
      6       2.3048     -0.00000
      7       2.6653     -0.00000
      8       5.9308      0.00000
      9       5.9733      0.00000
     10       6.4645      0.00000
     11       7.3311      0.00000
     12       9.2348      0.00000
     13      10.0690      0.00000
     14      12.3665      0.00000

 k-point     2 :       0.3333    0.0000    0.0000
  band No.  band energies     occupation 
      1     -18.8071      2.00000
      2     -11.5691      2.00000
      3      -7.7118      2.00000
      4      -6.5445      2.00000
      5       2.8378     -0.00000
      6       4.6472      0.00000
      7       5.5009      0.00000
      8       5.8514      0.00000
      9       6.2115      0.00000
     10       9.3136      0.00000
     11      10.7972      0.00000
     12      13.6052      0.00000
     13      14.0391      0.00000
     14      14.5559      0.00000

 k-point     3 :       0.0000    0.3333    0.0000
  band No.  band energies     occupation 
      1     -18.8110      2.00000
      2     -11.6079      2.00000
      3      -7.6487      2.00000
      4      -6.5277      2.00000
      5       2.7848     -0.00000
      6       4.6465      0.00000
      7       5.5271      0.00000
      8       5.8496      0.00000
      9       6.2127      0.00000
     10       9.3148      0.00000
     11      10.7971      0.00000
     12      13.6167      0.00000
[...]


   POT+DIJ:  cpu time    0.0130: real time    0.0127
    HAMIL1:  cpu time    0.0070: real time    0.0365
    LRDIAG:  cpu time    0.0030: real time    0.0022
    LRDIIS:  cpu time    0.0200: real time    0.0261
    LRDIAG:  cpu time    0.0020: real time    0.0013
    MIXING:  cpu time    0.0000: real time    0.0006
    --------------------------------------------
      LOOP:  cpu time    0.0500: real time    0.0847

 Broyden mixing:
  rms(total) = 0.31898E-04    rms(broyden)= 0.30272E-04
  rms(prec ) = 0.36732E-04
  weight for this iteration     100.00

 eigenvalues of (default mixing * dielectric matrix)
  average eigenvalue GAMMA=   1.6083
  0.4402  3.0618  2.6023  2.6023  2.2808  1.6923  1.0643  1.0643  0.9860  0.9485
  0.9485

 Free energy of the ion-electron system (eV)
  ---------------------------------------------------
  -Hartree energ DENC   =      -371.76131045
  -V(xc)+E(xc)   XCENC  =        23.84054820
  PAW double counting   =       351.52899548     -351.87869062
  entropy T*S    EENTRO =         0.00000000
  eigenvalues    EBANDS =      -352.05368695
  ---------------------------------------------------
  free energy    TOTEN  =      -700.32414434 eV

  energy without entropy =     -700.32414434


----------------------------------------- Iteration    2(  14)  ---------------------------------------


   POT+DIJ:  cpu time    0.0130: real time    0.0125
    HAMIL1:  cpu time    0.0090: real time    0.0334
    LRDIAG:  cpu time    0.0020: real time    0.0021
    LRDIIS:  cpu time    0.0200: real time    0.0289
    LRDIAG:  cpu time    0.0010: real time    0.0013
    MIXING:  cpu time    0.0000: real time    0.0006
    --------------------------------------------
      LOOP:  cpu time    0.0560: real time    0.0892

 Broyden mixing:
  rms(total) = 0.38061E-05    rms(broyden)= 0.38045E-05
  rms(prec ) = 0.42642E-05
  weight for this iteration     100.00

 eigenvalues of (default mixing * dielectric matrix)
  average eigenvalue GAMMA=   1.6507
  3.0526  2.7502  2.4484  2.4484  0.4402  1.9789  1.6865  1.0678  1.0044  1.0044
  0.9372  0.9891

 Free energy of the ion-electron system (eV)
  ---------------------------------------------------
  -Hartree energ DENC   =      -371.76155146
  -V(xc)+E(xc)   XCENC  =        23.84054935
  PAW double counting   =       351.52972661     -351.87942128
  entropy T*S    EENTRO =         0.00000000
  eigenvalues    EBANDS =      -352.05342415
  ---------------------------------------------------
  free energy    TOTEN  =      -700.32412093 eV

  energy without entropy =     -700.32412093


------------------------ aborting loop because EDIFF is reached ----------------------------------------


 change of polarisation eV/A/(eV/A) component  2 :  -599.941   975.889    -0.000
 dielectric tensor                  component  2 : -1695.808  2759.473    -0.000


--------------------------------------------------------------------------------------------------------


    FORLOC:  cpu time    0.0010: real time    0.0003
    FORNL :  cpu time    0.0430: real time    0.5390
    STRESS:  cpu time    0.1570: real time    1.9094
    OFIELD:  cpu time    0.0000: real time    0.0001
    FORLOC:  cpu time    0.0010: real time    0.0004
    FORNL :  cpu time    0.0380: real time    0.3976
    STRESS:  cpu time    0.1180: real time    1.1801
    OFIELD:  cpu time    0.0000: real time    0.0001
    FORNLD:  cpu time    0.1100: real time    1.1421

 PIEZOELECTRIC TENSOR FIELD DIRECTION 2  (e Angst)
 -----------------------------------------------------------------------------
    -9.85626-15.67309 -0.00007           (  0.00038  0.00061  0.00000)
   -15.67330  9.85318 -0.00004           (  0.00061 -0.00039 -0.00000)
    -0.00007 -0.00004 -0.00038           (  0.00000 -0.00000 -0.00000)

 PIEZOELECTRIC TENSOR FIELD DIRECTION 2  (C/m^2)
 -----------------------------------------------------------------------------
    -2.46675 -3.92254 -0.00002
    -3.92259  2.46598 -0.00001
    -0.00002 -0.00001 -0.00010


      POSITION         DIRECTION 2           BORN EFFECTIVE CHARGE    (rigid.aug.   ionic)
 -----------------------------------------------------------------------------------------
      2.47815      0.00596      1.70004   -12.97027-15.12884  0.00083 ( -0.09742  4.00000)
      0.00379      1.42700      1.70003    18.99491  5.79774 -0.00066 ( -0.09742  4.00000)
 -----------------------------------------------------------------------------------------
    total drift (improves with k-points):   6.02465 -9.33110  0.00017




--------------------------------------------------------------------------------------------------------


 Linear response to external field, progress :
  Direction:   3


----------------------------------------- Iteration    3(   1)  ---------------------------------------


   POT+DIJ:  cpu time    0.0150: real time    0.0153
    HAMIL1:  cpu time    0.0080: real time    0.0337
    LRDIAG:  cpu time    0.0030: real time    0.0026
    LRDIIS:  cpu time    0.0390: real time    0.0455
    LRDIAG:  cpu time    0.0020: real time    0.0022
    --------------------------------------------
      LOOP:  cpu time    0.0670: real time    0.0993

 Free energy of the ion-electron system (eV)
  ---------------------------------------------------
  -Hartree energ DENC   =         0.00000000
  -V(xc)+E(xc)   XCENC  =         0.00000000
  PAW double counting   =         0.00000000        0.00000000
  entropy T*S    EENTRO =         0.00000000
  eigenvalues    EBANDS =        -0.08642986
  ---------------------------------------------------
  free energy    TOTEN  =        -0.08642986 eV

  energy without entropy =       -0.08642986


----------------------------------------- Iteration    3(   2)  ---------------------------------------


   POT+DIJ:  cpu time    0.0210: real time    0.0215
    HAMIL1:  cpu time    0.0080: real time    0.0337
    LRDIAG:  cpu time    0.0030: real time    0.0027
    LRDIIS:  cpu time    0.0260: real time    0.0328
    LRDIAG:  cpu time    0.0020: real time    0.0020
    MIXING:  cpu time    0.0010: real time    0.0002
    --------------------------------------------
      LOOP:  cpu time    0.0660: real time    0.0990

 Broyden mixing:
  rms(total) = 0.48866E-01    rms(broyden)= 0.48860E-01
  rms(prec ) = 0.10682E+00
  weight for this iteration     100.00

 Free energy of the ion-electron system (eV)
  ---------------------------------------------------
  -Hartree energ DENC   =         0.00000000
  -V(xc)+E(xc)   XCENC  =         0.00000000
  PAW double counting   =         0.00000000        0.00000000
  entropy T*S    EENTRO =         0.00000000
  eigenvalues    EBANDS =        -0.08795413
  ---------------------------------------------------
  free energy    TOTEN  =        -0.08795413 eV

  energy without entropy =       -0.08795413


----------------------------------------- Iteration    3(   3)  ---------------------------------------


   POT+DIJ:  cpu time    0.0150: real time    0.0146
    HAMIL1:  cpu time    0.0070: real time    0.0316
    LRDIAG:  cpu time    0.0030: real time    0.0026
    LRDIIS:  cpu time    0.0220: real time    0.0274
    LRDIAG:  cpu time    0.0020: real time    0.0023
    MIXING:  cpu time    0.0010: real time    0.0004
    --------------------------------------------
      LOOP:  cpu time    0.0570: real time    0.0856

 Broyden mixing:
  rms(total) = 0.19205E-01    rms(broyden)= 0.19205E-01
  rms(prec ) = 0.53178E-01
  weight for this iteration     100.00

 eigenvalues of (default mixing * dielectric matrix)
  average eigenvalue GAMMA=   1.3190
  1.3190

 Free energy of the ion-electron system (eV)
  ---------------------------------------------------
  -Hartree energ DENC   =        -0.00614671
  -V(xc)+E(xc)   XCENC  =         0.00016054
  PAW double counting   =         0.00002372       -0.00002373
  entropy T*S    EENTRO =         0.00000000
  eigenvalues    EBANDS =        -0.04654298
  ---------------------------------------------------
  free energy    TOTEN  =        -0.05252916 eV

  energy without entropy =       -0.05252916


----------------------------------------- Iteration    3(   4)  ---------------------------------------


   POT+DIJ:  cpu time    0.0160: real time    0.0161
    HAMIL1:  cpu time    0.0090: real time    0.0325
    LRDIAG:  cpu time    0.0030: real time    0.0031
    LRDIIS:  cpu time    0.0230: real time    0.0282
    LRDIAG:  cpu time    0.0020: real time    0.0020
    MIXING:  cpu time    0.0020: real time    0.0004
    --------------------------------------------
      LOOP:  cpu time    0.0600: real time    0.0885

 Broyden mixing:
  rms(total) = 0.10660E-01    rms(broyden)= 0.10657E-01
  rms(prec ) = 0.23310E-01
  weight for this iteration     100.00

 eigenvalues of (default mixing * dielectric matrix)
  average eigenvalue GAMMA=   1.9219
  1.9219  1.9219

 Free energy of the ion-electron system (eV)
  ---------------------------------------------------
  -Hartree energ DENC   =        -0.01783770
  -V(xc)+E(xc)   XCENC  =         0.00042446
  PAW double counting   =         0.00001134       -0.00001029
  entropy T*S    EENTRO =         0.00000000
  eigenvalues    EBANDS =        -0.02556945
  ---------------------------------------------------
  free energy    TOTEN  =        -0.04298164 eV

  energy without entropy =       -0.04298164


----------------------------------------- Iteration    3(   5)  ---------------------------------------


   POT+DIJ:  cpu time    0.0150: real time    0.0150
    HAMIL1:  cpu time    0.0080: real time    0.0318
    LRDIAG:  cpu time    0.0040: real time    0.0039
    LRDIIS:  cpu time    0.0230: real time    0.0284
    LRDIAG:  cpu time    0.0020: real time    0.0021
    MIXING:  cpu time    0.0010: real time    0.0007
    --------------------------------------------
      LOOP:  cpu time    0.0600: real time    0.0888

 Broyden mixing:
  rms(total) = 0.43964E-02    rms(broyden)= 0.43954E-02
  rms(prec ) = 0.10448E-01
  weight for this iteration     100.00

 eigenvalues of (default mixing * dielectric matrix)
  average eigenvalue GAMMA=   2.2536
  1.5526  2.6041  2.6041

 Free energy of the ion-electron system (eV)
  ---------------------------------------------------
  -Hartree energ DENC   =        -0.02194799
  -V(xc)+E(xc)   XCENC  =         0.00051618
  PAW double counting   =         0.00019611       -0.00018841
  entropy T*S    EENTRO =         0.00000000
  eigenvalues    EBANDS =        -0.02016685
  ---------------------------------------------------
  free energy    TOTEN  =        -0.04159096 eV

  energy without entropy =       -0.04159096


----------------------------------------- Iteration    3(   6)  ---------------------------------------


   POT+DIJ:  cpu time    0.0150: real time    0.0153
    HAMIL1:  cpu time    0.0080: real time    0.0301
    LRDIAG:  cpu time    0.0020: real time    0.0028
    LRDIIS:  cpu time    0.0190: real time    0.0283
    LRDIAG:  cpu time    0.0020: real time    0.0014
    MIXING:  cpu time    0.0000: real time    0.0004
    --------------------------------------------
      LOOP:  cpu time    0.0530: real time    0.0852

 Broyden mixing:
  rms(total) = 0.29679E-02    rms(broyden)= 0.29632E-02
  rms(prec ) = 0.52104E-02
  weight for this iteration     100.00

 eigenvalues of (default mixing * dielectric matrix)
  average eigenvalue GAMMA=   1.9869
  2.9546  2.9546  1.5700  0.4685

 Free energy of the ion-electron system (eV)
  ---------------------------------------------------
  -Hartree energ DENC   =        -0.02285878
  -V(xc)+E(xc)   XCENC  =         0.00047326
  PAW double counting   =         0.00006252       -0.00006005
  entropy T*S    EENTRO =         0.00000000
  eigenvalues    EBANDS =        -0.01829348
  ---------------------------------------------------
  free energy    TOTEN  =        -0.04067653 eV

  energy without entropy =       -0.04067653


----------------------------------------- Iteration    3(   7)  ---------------------------------------


   POT+DIJ:  cpu time    0.0140: real time    0.0141
    HAMIL1:  cpu time    0.0110: real time    0.0330
    LRDIAG:  cpu time    0.0020: real time    0.0028
    LRDIIS:  cpu time    0.0260: real time    0.0314
    LRDIAG:  cpu time    0.0020: real time    0.0022
    MIXING:  cpu time    0.0010: real time    0.0006
    --------------------------------------------
      LOOP:  cpu time    0.0630: real time    0.0905

 Broyden mixing:
  rms(total) = 0.26539E-02    rms(broyden)= 0.26422E-02
  rms(prec ) = 0.40848E-02
  weight for this iteration     100.00

 eigenvalues of (default mixing * dielectric matrix)
  average eigenvalue GAMMA=   2.0807
  3.8509  3.1914  1.4845  1.4845  0.3919

 Free energy of the ion-electron system (eV)
  ---------------------------------------------------
  -Hartree energ DENC   =        -0.02279809
  -V(xc)+E(xc)   XCENC  =         0.00046490
  PAW double counting   =         0.00004704       -0.00004515
  entropy T*S    EENTRO =         0.00000000
  eigenvalues    EBANDS =        -0.01822038
  ---------------------------------------------------
  free energy    TOTEN  =        -0.04055168 eV

  energy without entropy =       -0.04055168


----------------------------------------- Iteration    3(   8)  ---------------------------------------


   POT+DIJ:  cpu time    0.0160: real time    0.0163
    HAMIL1:  cpu time    0.0100: real time    0.0343
    LRDIAG:  cpu time    0.0040: real time    0.0032
    LRDIIS:  cpu time    0.0220: real time    0.0290
    LRDIAG:  cpu time    0.0020: real time    0.0022
    MIXING:  cpu time    0.0010: real time    0.0005
    --------------------------------------------
      LOOP:  cpu time    0.0620: real time    0.0922

 Broyden mixing:
  rms(total) = 0.11122E-02    rms(broyden)= 0.11080E-02
  rms(prec ) = 0.20620E-02
  weight for this iteration     100.00

 eigenvalues of (default mixing * dielectric matrix)
  average eigenvalue GAMMA=   2.6536
  6.8920  3.4065  2.6157  1.5752  1.0416  0.3907

 Free energy of the ion-electron system (eV)
  ---------------------------------------------------
  -Hartree energ DENC   =        -0.02261871
  -V(xc)+E(xc)   XCENC  =         0.00044906
  PAW double counting   =         0.00004279       -0.00004097
  entropy T*S    EENTRO =         0.00000000
  eigenvalues    EBANDS =        -0.01831734
  ---------------------------------------------------
  free energy    TOTEN  =        -0.04048517 eV

  energy without entropy =       -0.04048517


------------------------ aborting loop because EDIFF is reached ----------------------------------------


 change of polarisation eV/A/(eV/A) component  3 :     0.007    -0.012     0.075
 dielectric tensor                  component  3 :     0.021    -0.034     1.212


--------------------------------------------------------------------------------------------------------


    FORLOC:  cpu time    0.0020: real time    0.0006
    FORNL :  cpu time    0.0560: real time    0.4172
    STRESS:  cpu time    0.1260: real time    1.3406
    OFIELD:  cpu time    0.0000: real time    0.0001
    FORLOC:  cpu time    0.0010: real time    0.0006
    FORNL :  cpu time    0.0390: real time    0.4873
    STRESS:  cpu time    0.1680: real time    1.2493
    OFIELD:  cpu time    0.0000: real time    0.0001
    FORNLD:  cpu time    0.1370: real time    1.1702

 PIEZOELECTRIC TENSOR FIELD DIRECTION 3  (e Angst)
 -----------------------------------------------------------------------------
     0.00003  0.00005  0.00002           (  0.00000  0.00000  0.00000)
     0.00005 -0.00003 -0.00011           (  0.00000  0.00000 -0.00000)
     0.00002 -0.00011 -0.00000           (  0.00000 -0.00000  0.00000)

 PIEZOELECTRIC TENSOR FIELD DIRECTION 3  (C/m^2)
 -----------------------------------------------------------------------------
     0.00001  0.00001  0.00001
     0.00001 -0.00001 -0.00003
     0.00001 -0.00003 -0.00000


      POSITION         DIRECTION 3           BORN EFFECTIVE CHARGE    (rigid.aug.   ionic)
 -----------------------------------------------------------------------------------------
      2.47815      0.00596      1.70004     0.00002  0.00001 -0.00378 ( -0.09742  4.00000)
      0.00379      1.42700      1.70003    -0.00002 -0.00001 -0.00386 ( -0.09742  4.00000)
 -----------------------------------------------------------------------------------------
    total drift (improves with k-points):   0.00000 -0.00000 -0.00764




--------------------------------------------------------------------------------------------------------




 MACROSCOPIC STATIC DIELECTRIC TENSOR (including local field effects in DFT)
 ------------------------------------------------------
        1018.715914 -1695.807837     0.020953
       -1653.845476  2759.472954    -0.034076
           0.000075    -0.000128     1.211635
 ------------------------------------------------------



--------------------------------------------------------------------------------------------------------




--------------------------------------------------------------------------------------------------------




 MACROSCOPIC STATIC DIELECTRIC TENSOR (including local field effects in DFT)
 ------------------------------------------------------
        1018.715914 -1695.807837     0.020953
       -1653.845476  2759.472954    -0.034076
           0.000075    -0.000128     1.211635
 ------------------------------------------------------


 PIEZOELECTRIC TENSOR  for field in x, y, z        (e  Angst)
          XX          YY          ZZ          XY          YZ          ZX
  --------------------------------------------------------------------------------
  x     5.95770    -5.95607    -0.00000     9.47284     0.00002     0.00004
  y    -9.85626     9.85318    -0.00038   -15.67330    -0.00004    -0.00007
  z     0.00003    -0.00003    -0.00000     0.00005    -0.00011     0.00002

 PIEZOELECTRIC TENSOR  for field in x, y, z        (C/m^2)
          XX          YY          ZZ          XY          YZ          ZX
  --------------------------------------------------------------------------------
  x     1.49105    -1.49064    -0.00000     2.37079     0.00001     0.00001
  y    -2.46675     2.46598    -0.00010    -3.92259    -0.00001    -0.00002
  z     0.00001    -0.00001    -0.00000     0.00001    -0.00003     0.00001
 
 BORN EFFECTIVE CHARGES (in e, cummulative output)
 -------------------------------------------------
 ion    1
    1     9.64352     6.31041    -0.00041
    2   -15.98259   -10.46329     0.00074
    3     0.00002     0.00001     0.00004
 ion    2
    1    -9.64352    -6.31041     0.00041
    2    15.98259    10.46329    -0.00074
    3    -0.00002    -0.00001    -0.00004


--------------------------------------------------------------------------------------------------------


     LOOP+:  cpu time    9.1526: real time   29.2871
    4ORBIT:  cpu time    0.0000: real time    0.0000

 total amount of memory used by VASP MPI-rank0    32839. kBytes
=======================================================================

   base      :      30000. kBytes
   nonlr-proj:        210. kBytes
   fftplans  :       1526. kBytes
   grid      :        907. kBytes
   one-center:          6. kBytes
   wavefun   :        190. kBytes
 
  
  
 General timing and accounting informations for this job:
 ========================================================
  
                  Total CPU time used (sec):       10.589
                            User time (sec):        9.485
                          System time (sec):        1.105
                         Elapsed time (sec):       31.806
  
                   Maximum memory used (kb):      299176.
                   Average memory used (kb):           0.
  
                          Minor page faults:        64311
                          Major page faults:            0
                 Voluntary context switches:        13675
