 vasp.5.4.4.18Apr17-6-g9f103f2a35 (build May 02 2017 19:20:32) complex          
  
 executed on    fermion-Intel-MKL date 2017.12.10  16:47:43
 running on    7 total cores
 distrk:  each k-point on    7 cores,    1 groups
 distr:  one band on NCORES_PER_BAND=   1 cores,    7 groups


--------------------------------------------------------------------------------------------------------


 INCAR:
 POTCAR:   PAW_PBE C 08Apr2002                    

 ----------------------------------------------------------------------------- 
|                                                                             |
|           W    W    AA    RRRRR   N    N  II  N    N   GGGG   !!!           |
|           W    W   A  A   R    R  NN   N  II  NN   N  G    G  !!!           |
|           W    W  A    A  R    R  N N  N  II  N N  N  G       !!!           |
|           W WW W  AAAAAA  RRRRR   N  N N  II  N  N N  G  GGG   !            |
|           WW  WW  A    A  R   R   N   NN  II  N   NN  G    G                |
|           W    W  A    A  R    R  N    N  II  N    N   GGGG   !!!           |
|                                                                             |
|      For optimal performance we recommend to set                            |
|        NCORE= 4 - approx SQRT( number of cores)                             |
|      NCORE specifies how many cores store one orbital (NPAR=cpu/NCORE).     |
|      This setting can  greatly improve the performance of VASP for DFT.     |
|      The default,   NCORE=1            might be grossly inefficient         |
|      on modern multi-core architectures or massively parallel machines.     |
|      Do your own testing !!!!                                               |
|      Unfortunately you need to use the default for GW and RPA calculations. |
|      (for HF NCORE is supported but not extensively tested yet)             |
|                                                                             |
 ----------------------------------------------------------------------------- 

 POTCAR:   PAW_PBE C 08Apr2002                    
   VRHFIN =C: s2p2                                                              
   LEXCH  = PE                                                                  
   EATOM  =   147.1560 eV,   10.8157 Ry                                         
                                                                                
   TITEL  = PAW_PBE C 08Apr2002                                                 
   LULTRA =        F    use ultrasoft PP ?                                      
   IUNSCR =        0    unscreen: 0-lin 1-nonlin 2-no                           
   RPACOR =     .000    partial core radius                                     
   POMASS =   12.011; ZVAL   =    4.000    mass and valenz                      
   RCORE  =    1.500    outmost cutoff radius                                   
   RWIGS  =    1.630; RWIGS  =     .863    wigner-seitz radius (au A)           
   ENMAX  =  400.000; ENMIN  =  300.000 eV                                      
   ICORE  =        2    local potential                                         
   LCOR   =        T    correct aug charges                                     
   LPAW   =        T    paw PP                                                  
   EAUG   =  644.873                                                            
   DEXC   =     .000                                                            
   RMAX   =    2.266    core radius for proj-oper                               
   RAUG   =    1.300    factor for augmentation sphere                          
   RDEP   =    1.501    radius for radial grids                                 
   RDEPT  =    1.300    core radius for aug-charge                              
   QCUT   =   -5.516; QGAM   =   11.032    optimization parameters              
                                                                                
   Description                                                                  
     l     E      TYP  RCUT    TYP  RCUT                                        
     0   .000     23  1.200                                                     
     0   .000     23  1.200                                                     
     1   .000     23  1.500                                                     
     1  2.500     23  1.500                                                     
     2   .000      7  1.500                                                     
  local pseudopotential read in
  atomic valenz-charges read in
  non local Contribution for L=           0  read in
    real space projection operators read in
  non local Contribution for L=           0  read in
    real space projection operators read in
  non local Contribution for L=           1  read in
    real space projection operators read in
  non local Contribution for L=           1  read in
    real space projection operators read in
    PAW grid and wavefunctions read in
 
   number of l-projection  operators is LMAX  =           4
   number of lm-projection operators is LMMAX =           8
 

 ----------------------------------------------------------------------------- 
|                                                                             |
|  ADVICE TO THIS USER RUNNING 'VASP/VAMP'   (HEAR YOUR MASTER'S VOICE ...):  |
|                                                                             |
|      You have a (more or less) 'small supercell' and for smaller cells      |
|      it is recommended  to use the reciprocal-space projection scheme!      |
|      The real space optimization is not  efficient for small cells and it   |
|      is also less accurate ...                                              |
|      Therefore set LREAL=.FALSE. in the  INCAR file                         |
|                                                                             |
 ----------------------------------------------------------------------------- 

 Optimization of the real space projectors (new method)

 maximal supplied QI-value         = 25.13
 optimisation between [QCUT,QGAM] = [ 10.05, 20.36] = [ 28.30,116.06] Ry 
 Optimized for a Real-space Cutoff    1.30 Angstroem

   l    n(q)    QCUT    max X(q) W(low)/X(q) W(high)/X(q)  e(spline) 
   0      8    10.053     5.582    0.43E-04    0.44E-04    0.61E-07
   0      8    10.053    69.432    0.49E-03    0.71E-03    0.18E-06
   1      7    10.053     2.780    0.78E-04    0.13E-03    0.11E-06
   1      7    10.053     4.549    0.23E-03    0.19E-03    0.20E-06
 PAW_PBE C 08Apr2002                    :
 energy of atom  1       EATOM= -147.1560
 kinetic energy error for atom=    0.0288 (will be added to EATOM!!)
 
 
 POSCAR: OUTCAR.0002.-1.out 1.0e-02              
  positions in cartesian coordinates
  No initial velocities read in
 exchange correlation table for  LEXCH =        8
   RHO(1)=    0.500       N(1)  =     2000
   RHO(2)=  100.500       N(2)  =     4000
 


--------------------------------------------------------------------------------------------------------


 ion  position               nearest neighbor table
   1  0.003  0.001  0.141-   2 1.43   2 1.43   2 1.43
   2  0.336  0.668  0.141-   1 1.43   1 1.43   1 1.43
 

IMPORTANT INFORMATION: All symmetrisations will be switched off!
NOSYMM: (Re-)initialisation of all symmetry stuff for point group C_1.

 
 
 KPOINTS: K-Points                                

Automatic generation of k-mesh.
Space group operators:
 irot       det(A)        alpha          n_x          n_y          n_z        tau_x        tau_y        tau_z
    1     1.000000     0.000000     1.000000     0.000000     0.000000     0.000000     0.000000     0.000000
 
 Subroutine IBZKPT returns following result:
 ===========================================
 
 Found      5 irreducible k-points:
 
 Following reciprocal coordinates:
            Coordinates               Weight
  0.000000  0.000000  0.000000      1.000000
  0.333333  0.000000  0.000000      2.000000
  0.000000  0.333333  0.000000      2.000000
  0.333333  0.333333  0.000000      2.000000
 -0.333333  0.333333  0.000000      2.000000
 
 Following cartesian coordinates:
            Coordinates               Weight
  0.000000  0.000000  0.000000      1.000000
  0.134303  0.077540 -0.000000      2.000000
  0.000000  0.155080 -0.000000      2.000000
  0.134303  0.232620 -0.000000      2.000000
 -0.134303  0.077540  0.000000      2.000000
 
 
 Subroutine IBZKPT_HF returns following result:
 ==============================================
 
 Found      9 k-points in 1st BZ
 the following      9 k-points will be used (e.g. in the exchange kernel)
 Following reciprocal coordinates:   # in IRBZ
  0.000000  0.000000  0.000000    0.11111111   1 t-inv F
  0.333333  0.000000  0.000000    0.11111111   2 t-inv F
  0.000000  0.333333  0.000000    0.11111111   3 t-inv F
  0.333333  0.333333  0.000000    0.11111111   4 t-inv F
 -0.333333  0.333333  0.000000    0.11111111   5 t-inv F
 -0.333333 -0.000000 -0.000000    0.11111111   2 t-inv T
  0.000000 -0.333333 -0.000000    0.11111111   3 t-inv T
 -0.333333 -0.333333 -0.000000    0.11111111   4 t-inv T
  0.333333 -0.333333  0.000000    0.11111111   5 t-inv T


--------------------------------------------------------------------------------------------------------




 Dimension of arrays:
   k-points           NKPTS =      5   k-points in BZ     NKDIM =      5   number of bands    NBANDS=     14
   number of dos      NEDOS =    301   number of ions     NIONS =      2
   non local maximal  LDIM  =      4   non local SUM 2l+1 LMDIM =      8
   total plane-waves  NPLWV =   8640
   max r-space proj   IRMAX =   1295   max aug-charges    IRDMAX=  12939
   dimension x,y,z NGX =    12 NGY =   12 NGZ =   60
   dimension x,y,z NGXF=    24 NGYF=   24 NGZF=  120
   support grid    NGXF=    48 NGYF=   48 NGZF=  240
   ions per type =               2
   NGX,Y,Z   is equivalent  to a cutoff of   8.04,  8.04,  8.31 a.u.
   NGXF,Y,Z  is equivalent  to a cutoff of  16.08, 16.08, 16.62 a.u.

 SYSTEM =  raman                                   
 POSCAR =  OUTCAR.0002.-1.out 1.0e-02              

 Startparameter for this run:
   NWRITE =      3    write-flag & timer
   PREC   = n         normal or accurate (medium, high low for compatibility)
   ISTART =      0    job   : 0-new  1-cont  2-samecut
   ICHARG =      2    charge: 1-file 2-atom 10-const
   ISPIN  =      1    spin polarized calculation?
   LNONCOLLINEAR =      F non collinear calculations
   LSORBIT =      F    spin-orbit coupling
   INIWAV =      1    electr: 0-lowe 1-rand  2-diag
   LASPH  =      F    aspherical Exc in radial PAW
   METAGGA=      F    non-selfconsistent MetaGGA calc.

 Electronic Relaxation 1
   ENCUT  =  400.0 eV  29.40 Ry    5.42 a.u.   4.05  4.05 19.57*2*pi/ulx,y,z
   ENINI  =  400.0     initial cutoff
   ENAUG  =  644.9 eV  augmentation charge cutoff
   NELM   =     60;   NELMIN=  4; NELMDL= -5     # of ELM steps 
   EDIFF  = 0.1E-03   stopping-criterion for ELM
   LREAL  =      T    real-space projection
   NLSPLINE    = F    spline interpolate recip. space projectors
   LCOMPAT=      F    compatible to vasp.4.4
   GGA_COMPAT  = T    GGA compatible to vasp.4.4-vasp.4.6
   LMAXPAW     = -100 max onsite density
   LMAXMIX     =    2 max onsite mixed and CHGCAR
   VOSKOWN=      0    Vosko Wilk Nusair interpolation
   ROPT   =   -0.00050
 Ionic relaxation
   EDIFFG = 0.1E-02   stopping-criterion for IOM
   NSW    =      0    number of steps for IOM
   NBLOCK =      1;   KBLOCK =      1    inner block; outer block 
   IBRION =     -1    ionic relax: 0-MD 1-quasi-New 2-CG
   NFREE  =      0    steps in history (QN), initial steepest desc. (CG)
   ISIF   =      2    stress and relaxation
   IWAVPR =     10    prediction:  0-non 1-charg 2-wave 3-comb
   ISYM   =      0    0-nonsym 1-usesym 2-fastsym
   LCORR  =      T    Harris-Foulkes like correction to forces

   POTIM  = 0.5000    time-step for ionic-motion
   TEIN   =    0.0    initial temperature
   TEBEG  =    0.0;   TEEND  =   0.0 temperature during run
   SMASS  =  -3.00    Nose mass-parameter (am)
   estimated Nose-frequenzy (Omega)   =  0.10E-29 period in steps =****** mass=  -0.141E-27a.u.
   SCALEE = 1.0000    scale energy and forces
   NPACO  =    256;   APACO  = 16.0  distance and # of slots for P.C.
   PSTRESS=    0.0 pullay stress

  Mass of Ions in am
   POMASS =  12.01
  Ionic Valenz
   ZVAL   =   4.00
  Atomic Wigner-Seitz radii
   RWIGS  =  -1.00
  virtual crystal weights 
   VCA    =   1.00
   NELECT =       8.0000    total number of electrons
   NUPDOWN=      -1.0000    fix difference up-down

 DOS related values:
   EMIN   =  10.00;   EMAX   =-10.00  energy-range for DOS
   EFERMI =   0.00
   ISMEAR =     1;   SIGMA  =   0.20  broadening in eV -4-tet -1-fermi 0-gaus

 Electronic relaxation 2 (details)
   IALGO  =     38    algorithm
   LDIAG  =      T    sub-space diagonalisation (order eigenvalues)
   LSUBROT=      F    optimize rotation matrix (better conditioning)
   TURBO    =      0    0=normal 1=particle mesh
   IRESTART =      0    0=no restart 2=restart with 2 vectors
   NREBOOT  =      0    no. of reboots
   NMIN     =      0    reboot dimension
   EREF     =   0.00    reference energy to select bands
   IMIX   =      4    mixing-type and parameters
     AMIX     =   0.40;   BMIX     =  1.00
     AMIX_MAG =   1.60;   BMIX_MAG =  1.00
     AMIN     =   0.10
     WC   =   100.;   INIMIX=   1;  MIXPRE=   1;  MAXMIX= -45

 Intra band minimization:
   WEIMIN = 0.0000     energy-eigenvalue tresh-hold
   EBREAK =  0.18E-05  absolut break condition
   DEPER  =   0.30     relativ break condition  

   TIME   =   0.40     timestep for ELM

  volume/ion in A,a.u.               =      32.01       216.01
  Fermi-wavevector in a.u.,A,eV,Ry     =   0.818475  1.546694  9.114571  0.669902
  Thomas-Fermi vector in A             =   1.929109
 
 Write flags
   LWAVE        =      F    write WAVECAR
   LDOWNSAMPLE  =      F    k-point downsampling of WAVECAR
   LCHARG       =      F    write CHGCAR
   LVTOT        =      F    write LOCPOT, total local potential
   LVHAR        =      F    write LOCPOT, Hartree potential only
   LELF         =      F    write electronic localiz. function (ELF)
   LORBIT       =      0    0 simple, 1 ext, 2 COOP (PROOUT), +10 PAW based schemes


 Dipole corrections
   LMONO  =      F    monopole corrections only (constant potential shift)
   LDIPOL =      F    correct potential (dipole corrections)
   IDIPOL =      0    1-x, 2-y, 3-z, 4-all directions 
   EPSILON=  1.0000000 bulk dielectric constant

 Exchange correlation treatment:
   GGA     =    --    GGA type
   LEXCH   =     8    internal setting for exchange type
   VOSKOWN=      0    Vosko Wilk Nusair interpolation
   LHFCALC =     F    Hartree Fock is set to
   LHFONE  =     F    Hartree Fock one center treatment
   AEXX    =    0.0000 exact exchange contribution

 Linear response parameters
   LEPSILON=     T    determine dielectric tensor
   LRPA    =     F    only Hartree local field effects (RPA)
   LNABLA  =     F    use nabla operator in PAW spheres
   LVEL    =     F    velocity operator in full k-point grid
   LINTERFAST=   F  fast interpolation
   KINTER  =     0    interpolate to denser k-point grid
   CSHIFT  =0.1000    complex shift for real part using Kramers Kronig
   OMEGAMAX=  -1.0    maximum frequency
   DEG_THRESHOLD= 0.2000000E-02 threshold for treating states as degnerate
   RTIME   =   -0.100 relaxation time in fs
  (WPLASMAI=    0.000 imaginary part of plasma frequency in eV, 0.658/RTIME)
   DFIELD  = 0.0000000 0.0000000 0.0000000 field for delta impulse in time
 
 Orbital magnetization related:
   ORBITALMAG=     F  switch on orbital magnetization
   LCHIMAG   =     F  perturbation theory with respect to B field
   DQ        =  0.001000  dq finite difference perturbation B field
   LLRAUG    =     F  two centre corrections for induced B field



--------------------------------------------------------------------------------------------------------


 Static calculation
 charge density and potential will be updated during run
 non-spin polarized calculation
 Variant of blocked Davidson
 Davidson routine will perform the subspace rotation
 perform sub-space diagonalisation
    after iterative eigenvector-optimisation
 modified Broyden-mixing scheme, WC =      100.0
 initial mixing is a Kerker type mixing with AMIX =  0.4000 and BMIX =      1.0000
 Hartree-type preconditioning will be used
 using additional bands           10
 real space projection scheme for non local part
 calculate Harris-corrections to forces 
   (improved forces if not selfconsistent)
 use gradient corrections 
 use of overlap-Matrix (Vanderbilt PP)
 Methfessel and Paxton  Order N= 1 SIGMA  =   0.20


--------------------------------------------------------------------------------------------------------


  energy-cutoff  :      400.00
  volume of cell :       64.02
      direct lattice vectors                 reciprocal lattice vectors
     2.481948769  0.000000000  0.000000000     0.402909203  0.232619737 -0.000000000
    -1.240974385  2.149430685  0.000000000     0.000000000  0.465239473 -0.000000000
     0.000000000  0.000000000 12.000000000     0.000000000  0.000000000  0.083333333

  length of vectors
     2.481948769  2.481948769 12.000000000     0.465239473  0.465239473  0.083333333


 
 k-points in units of 2pi/SCALE and weight: K-Points                                
   0.00000000  0.00000000  0.00000000       0.111
   0.13430307  0.07753991 -0.00000000       0.222
   0.00000000  0.15507982 -0.00000000       0.222
   0.13430307  0.23261974 -0.00000000       0.222
  -0.13430307  0.07753991  0.00000000       0.222
 
 k-points in reciprocal lattice and weights: K-Points                                
   0.00000000  0.00000000  0.00000000       0.111
   0.33333333  0.00000000  0.00000000       0.222
   0.00000000  0.33333333  0.00000000       0.222
   0.33333333  0.33333333  0.00000000       0.222
  -0.33333333  0.33333333  0.00000000       0.222
 
 position of ions in fractional coordinates (direct lattice) 
   0.00307155  0.00143430  0.14145845
   0.33639492  0.66810505  0.14145842
 
 position of ions in cartesian coordinates  (Angst):
   0.00584349  0.00308293  1.69750137
   0.00581370  1.43604550  1.69750105
 


--------------------------------------------------------------------------------------------------------


 k-point  1 :   0.0000 0.0000 0.0000  plane waves:    1125
 k-point  2 :   0.3333 0.0000 0.0000  plane waves:    1167
 k-point  3 :   0.0000 0.3333 0.0000  plane waves:    1167
 k-point  4 :   0.3333 0.3333 0.0000  plane waves:    1146
 k-point  5 :  -0.3333 0.3333 0.0000  plane waves:    1167

 maximum and minimum number of plane-waves per node :      1167     1125

 maximum number of plane-waves:      1167
 maximum index in each direction: 
   IXMAX=    4   IYMAX=    4   IZMAX=   19
   IXMIN=   -4   IYMIN=   -4   IZMIN=  -19


 serial   3D FFT for wavefunctions
 parallel 3D FFT for charge:
    minimum data exchange during FFTs selected (reduces bandwidth)


 total amount of memory used by VASP MPI-rank0    32837. kBytes
=======================================================================

   base      :      30000. kBytes
   nonlr-proj:        208. kBytes
   fftplans  :       1526. kBytes
   grid      :        907. kBytes
   one-center:          6. kBytes
   wavefun   :        190. kBytes
 
     INWAV:  cpu time    0.0000: real time    0.0000
 Broyden mixing: mesh for mixing (old mesh)
   NGX =  9   NGY =  9   NGZ = 39
  (NGX  = 24   NGY  = 24   NGZ  =120)
  gives a total of   3159 points

 initial charge density was supplied:
 charge density of overlapping atoms calculated
 number of electron       8.0000000 magnetization 
 keeping initial charge density in first step


--------------------------------------------------------------------------------------------------------


 Maximum index for non-local projection operator         1191
 Maximum index for augmentation-charges         1868 (set IRDMAX)


--------------------------------------------------------------------------------------------------------


 First call to EWALD:  gamma=   0.443
 Maximum number of real-space cells 5x 5x 1
 Maximum number of reciprocal cells 2x 2x 7

    FEWALD:  cpu time    0.0070: real time    0.0071


----------------------------------------- Iteration    1(   1)  ---------------------------------------


    POTLOK:  cpu time    0.0060: real time    0.0060
    SETDIJ:  cpu time    0.0040: real time    0.0038
     EDDAV:  cpu time    0.1890: real time    0.5110
       DOS:  cpu time    0.0010: real time    0.0008
    --------------------------------------------
      LOOP:  cpu time    0.2020: real time    0.5245

 eigenvalue-minimisations  :   140
 total energy-change (2. order) : 0.1319743E+02  (-0.3579410E+03)
 number of electron       8.0000000 magnetization 
 augmentation part        8.0000000 magnetization 

 Free energy of the ion-electron system (eV)
  ---------------------------------------------------
  alpha Z        PSCENC =         5.09113229
  Ewald energy   TEWEN  =       551.13459497
  -Hartree energ DENC   =      -777.05864007
  -exchange      EXHF   =         0.00000000
  -V(xc)+E(xc)   XCENC  =        27.46714398
  PAW double counting   =        75.66288619      -77.96384553
  entropy T*S    EENTRO =        -0.01104080
  eigenvalues    EBANDS =       -85.37925240
  atomic energy  EATOM  =       294.25444774
  Solvation  Ediel_sol  =         0.00000000
  ---------------------------------------------------
  free energy    TOTEN  =        13.19742637 eV

  energy without entropy =       13.20846718  energy(sigma->0) =       13.20110664


--------------------------------------------------------------------------------------------------------




 average (electrostatic) potential at core
  the test charge radii are     0.6991
  (the norm of the test charge is              1.0000)
       1 -62.8965       2 -62.8965
 
 
 
 E-fermi :   2.6393     XC(G=0):  -3.9366     alpha+bet : -3.1363


 k-point     1 :       0.0000    0.0000    0.0000
  band No.  band energies     occupation 
      1     -24.3033      2.00000
      2     -11.2448      2.00000
      3      -3.9287      2.00000
      4       1.2927      2.00000
      5       2.5891      1.41063
      6       3.0038     -0.02719
      7       3.8914     -0.00000
      8       6.9247     -0.00000
      9       8.2301      0.00000
     10      11.0562      0.00000
     11      14.0257      0.00000
     12      15.8191      0.00000
     13      20.7406      0.00000
     14      21.6592      0.00000

 k-point     2 :       0.3333    0.0000    0.0000
  band No.  band energies     occupation 
      1     -21.8310      2.00000
      2     -11.5814      2.00000
      3      -7.4142      2.00000
      4      -5.5072      2.00000
      5       5.1551     -0.00000
      6       6.6344     -0.00000
      7       7.5089     -0.00000
      8      10.0265      0.00000
      9      11.7087      0.00000
     10      13.7944      0.00000
     11      16.8963      0.00000
     12      17.9009      0.00000
     13      20.7499      0.00000
     14      25.0370      0.00000

 k-point     3 :       0.0000    0.3333    0.0000
  band No.  band energies     occupation 
      1     -21.8349      2.00000
      2     -10.4002      2.00000
      3      -7.6490      2.00000
      4      -3.3747      2.00000
      5       5.2282     -0.00000
      6       6.4807     -0.00000
      7       7.4901     -0.00000
      8      10.0060      0.00000
      9      11.7705      0.00000
     10      13.4317      0.00000
     11      16.3486      0.00000
     12      18.4050      0.00000
     13      18.9425      0.00000
     14      20.2629      0.00000

 k-point     4 :       0.3333    0.3333    0.0000
  band No.  band energies     occupation 
      1     -16.7318      2.00000
      2     -14.8405      2.00000
      3     -13.0361      2.00000
      4       0.0280      2.00000
      5       2.9674     -0.04243
      6      12.2713      0.00000
      7      13.1567      0.00000
      8      13.5824      0.00000
      9      14.2698      0.00000
     10      14.8700      0.00000
     11      16.2041      0.00000
     12      17.6182      0.00000
     13      19.4901      0.00000
     14      21.3000      0.00000

 k-point     5 :      -0.3333    0.3333    0.0000
  band No.  band energies     occupation 
      1     -21.6765      2.00000
      2     -12.5666      2.00000
      3      -7.1788      2.00000
      4       2.5968      1.35071
      5       5.2786     -0.00000
      6       7.1739     -0.00000
      7       7.8951     -0.00000
      8       9.5362      0.00000
      9      12.0726      0.00000
     10      15.4073      0.00000
     11      17.8489      0.00000
     12      19.4645      0.00000
     13      21.9602      0.00000
     14      22.1699      0.00000


--------------------------------------------------------------------------------------------------------


 soft charge-density along one line, spin component           1
         0         1         2         3         4         5         6         7         8         9
 total charge-density along one line
 
 pseudopotential strength for first ion, spin component:           1
 10.479   0.027  -0.000  -0.000   0.000   0.000   0.000  -0.000
  0.027  -0.001   0.000   0.000  -0.000   0.000   0.000  -0.000
 -0.000   0.000  -4.631   0.000   0.000  -0.003   0.000   0.000
 -0.000   0.000   0.000  -4.598   0.000   0.000   0.002   0.000
  0.000  -0.000   0.000   0.000  -4.631   0.000   0.000  -0.003
  0.000   0.000  -0.003   0.000   0.000  -0.776   0.000   0.000
  0.000   0.000   0.000   0.002   0.000   0.000  -0.775   0.000
 -0.000  -0.000   0.000   0.000  -0.003   0.000   0.000  -0.776
 total augmentation occupancy for first ion, spin component:           1
  2.000   0.000   0.000   0.000   0.000   0.000   0.000   0.000
  0.000   0.000   0.000   0.000   0.000   0.000   0.000   0.000
  0.000   0.000   0.667   0.000   0.000   0.000   0.000   0.000
  0.000   0.000   0.000   0.667   0.000   0.000   0.000   0.000
  0.000   0.000   0.000   0.000   0.667   0.000   0.000   0.000
  0.000   0.000   0.000   0.000   0.000   0.000   0.000   0.000
  0.000   0.000   0.000   0.000   0.000   0.000   0.000   0.000
  0.000   0.000   0.000   0.000   0.000   0.000   0.000   0.000


----------------------------------------- Iteration    1(   2)  ---------------------------------------


     EDDAV:  cpu time    0.1410: real time    0.3591
       DOS:  cpu time    0.0000: real time    0.0002
    --------------------------------------------
      LOOP:  cpu time    0.1420: real time    0.3613

 eigenvalue-minimisations  :   224
 total energy-change (2. order) :-0.3195831E+02  (-0.3038220E+02)
 number of electron       8.0000000 magnetization 
 augmentation part        8.0000000 magnetization 

 Free energy of the ion-electron system (eV)
  ---------------------------------------------------
  alpha Z        PSCENC =         5.09113229
  Ewald energy   TEWEN  =       551.13459497
  -Hartree energ DENC   =      -777.05864007
  -exchange      EXHF   =         0.00000000
  -V(xc)+E(xc)   XCENC  =        27.46714398
  PAW double counting   =        75.66288619      -77.96384553
  entropy T*S    EENTRO =        -0.02274653
  eigenvalues    EBANDS =      -117.32585496
  atomic energy  EATOM  =       294.25444774
  Solvation  Ediel_sol  =         0.00000000
  ---------------------------------------------------
  free energy    TOTEN  =       -18.76088191 eV

  energy without entropy =      -18.73813538  energy(sigma->0) =      -18.75329973


--------------------------------------------------------------------------------------------------------




 average (electrostatic) potential at core
  the test charge radii are     0.6991
  (the norm of the test charge is              1.0000)
       1 -62.8965       2 -62.8965
 
 
 
 E-fermi :  -4.9237     XC(G=0):  -3.9366     alpha+bet : -3.1363


 k-point     1 :       0.0000    0.0000    0.0000
  band No.  band energies     occupation 
      1     -25.0213      2.00000
      2     -12.1681      2.00000
      3      -9.4490      2.00000
      4      -9.2251      2.00000
      5       1.2681      0.00000
      6       2.4813      0.00000
      7       2.5604      0.00000
      8       2.6009      0.00000
      9       3.6388      0.00000
     10       5.9056      0.00000
     11       6.4830      0.00000
     12       6.5308      0.00000
     13       7.7100      0.00000
     14      12.5946      0.00000

 k-point     2 :       0.3333    0.0000    0.0000
  band No.  band energies     occupation 
      1     -22.5548      2.00000
      2     -15.5821      2.00000
      3     -11.9917      2.00000
      4      -9.3272      2.00000
      5      -0.1752     -0.00000
      6       2.0357      0.00000
      7       4.7288      0.00000
      8       6.0468      0.00000
      9       7.1863      0.00000
     10       9.7209      0.00000
     11      10.0386      0.00000
     12      10.6059      0.00000
     13      11.1638      0.00000
     14      13.8361      0.00000

 k-point     3 :       0.0000    0.3333    0.0000
  band No.  band energies     occupation 
      1     -22.5551      2.00000
      2     -15.5719      2.00000
      3     -11.9890      2.00000
      4      -9.3276      2.00000
      5      -0.1514     -0.00000
      6       2.0646      0.00000
      7       4.7294      0.00000
      8       6.0433      0.00000
      9       7.1874      0.00000
     10       9.7254      0.00000
     11       9.9024      0.00000
     12      10.5718      0.00000
     13      11.1806      0.00000
     14      13.7917      0.00000

 k-point     4 :       0.3333    0.3333    0.0000
  band No.  band energies     occupation 
      1     -18.4587      2.00000
      2     -18.4312      2.00000
      3     -16.2967      2.00000
      4      -4.9594      1.29649
      5      -4.8881      0.70351
      6       7.3176      0.00000
      7       8.3150      0.00000
      8       9.4498      0.00000
      9      10.3586      0.00000
     10      12.6066      0.00000
     11      12.9915      0.00000
     12      13.3727      0.00000
     13      13.4622      0.00000
     14      14.3348      0.00000

 k-point     5 :      -0.3333    0.3333    0.0000
  band No.  band energies     occupation 
      1     -22.5407      2.00000
      2     -15.5391      2.00000
      3     -11.6767      2.00000
      4      -9.2746      2.00000
      5       0.2094     -0.00000
      6       2.7566      0.00000
      7       4.7479      0.00000
      8       6.1282      0.00000
      9       7.2188      0.00000
     10       9.8596      0.00000
     11      11.2691      0.00000
     12      14.0726      0.00000
     13      15.0857      0.00000
     14      16.7812      0.00000


--------------------------------------------------------------------------------------------------------


 soft charge-density along one line, spin component           1
         0         1         2         3         4         5         6         7         8         9
 total charge-density along one line
 
 pseudopotential strength for first ion, spin component:           1
 10.479   0.027  -0.000  -0.000   0.000   0.000   0.000  -0.000
  0.027  -0.001   0.000   0.000  -0.000   0.000   0.000  -0.000
 -0.000   0.000  -4.631   0.000   0.000  -0.003   0.000   0.000
 -0.000   0.000   0.000  -4.598   0.000   0.000   0.002   0.000
  0.000  -0.000   0.000   0.000  -4.631   0.000   0.000  -0.003
  0.000   0.000  -0.003   0.000   0.000  -0.776   0.000   0.000
  0.000   0.000   0.000   0.002   0.000   0.000  -0.775   0.000
 -0.000  -0.000   0.000   0.000  -0.003   0.000   0.000  -0.776
 total augmentation occupancy for first ion, spin component:           1
  2.000   0.000   0.000   0.000   0.000   0.000   0.000   0.000
  0.000   0.000   0.000   0.000   0.000   0.000   0.000   0.000
  0.000   0.000   0.667   0.000   0.000   0.000   0.000   0.000
  0.000   0.000   0.000   0.667   0.000   0.000   0.000   0.000
  0.000   0.000   0.000   0.000   0.667   0.000   0.000   0.000
  0.000   0.000   0.000   0.000   0.000   0.000   0.000   0.000
  0.000   0.000   0.000   0.000   0.000   0.000   0.000   0.000
  0.000   0.000   0.000   0.000   0.000   0.000   0.000   0.000


----------------------------------------- Iteration    1(   3)  ---------------------------------------


     EDDAV:  cpu time    0.1110: real time    0.2759
       DOS:  cpu time    0.0010: real time    0.0002
    --------------------------------------------
      LOOP:  cpu time    0.1130: real time    0.2783

 eigenvalue-minimisations  :   182
 total energy-change (2. order) :-0.3861517E+00  (-0.3838557E+00)
 number of electron       8.0000000 magnetization 
 augmentation part        8.0000000 magnetization 

 Free energy of the ion-electron system (eV)
  ---------------------------------------------------
  alpha Z        PSCENC =         5.09113229
  Ewald energy   TEWEN  =       551.13459497
  -Hartree energ DENC   =      -777.05864007
  -exchange      EXHF   =         0.00000000
  -V(xc)+E(xc)   XCENC  =        27.46714398
  PAW double counting   =        75.66288619      -77.96384553
  entropy T*S    EENTRO =        -0.02507498
  eigenvalues    EBANDS =      -117.70967819
  atomic energy  EATOM  =       294.25444774
  Solvation  Ediel_sol  =         0.00000000
  ---------------------------------------------------
  free energy    TOTEN  =       -19.14703359 eV

  energy without entropy =      -19.12195861  energy(sigma->0) =      -19.13867526


--------------------------------------------------------------------------------------------------------




 average (electrostatic) potential at core
  the test charge radii are     0.6991
  (the norm of the test charge is              1.0000)
       1 -62.8965       2 -62.8965
 
 
 
 E-fermi :  -4.9992     XC(G=0):  -3.9366     alpha+bet : -3.1363


 k-point     1 :       0.0000    0.0000    0.0000
  band No.  band energies     occupation 
      1     -25.0240      2.00000
      2     -12.1735      2.00000
      3      -9.4710      2.00000
      4      -9.4689      2.00000
      5       1.2661      0.00000
      6       2.3019      0.00000
      7       2.3022      0.00000
      8       2.5879      0.00000
      9       3.6368      0.00000
     10       5.5869      0.00000
     11       6.3322      0.00000
     12       6.4851      0.00000
     13       7.7015      0.00000
     14      12.5214      0.00000

 k-point     2 :       0.3333    0.0000    0.0000
  band No.  band energies     occupation 
      1     -22.5561      2.00000
      2     -15.5968      2.00000
      3     -12.0159      2.00000
      4      -9.3351      2.00000
      5      -0.2586     -0.00000
      6       1.9553      0.00000
      7       4.7244      0.00000
      8       6.0321      0.00000
      9       7.1839      0.00000
     10       9.7030      0.00000
     11       9.7611      0.00000
     12      10.4115      0.00000
     13      11.1443      0.00000
     14      13.7347      0.00000

 k-point     3 :       0.0000    0.3333    0.0000
  band No.  band energies     occupation 
      1     -22.5561      2.00000
      2     -15.5969      2.00000
      3     -12.0158      2.00000
      4      -9.3351      2.00000
      5      -0.2585     -0.00000
      6       1.9563      0.00000
      7       4.7244      0.00000
      8       6.0321      0.00000
      9       7.1839      0.00000
     10       9.7033      0.00000
     11       9.7581      0.00000
     12      10.4116      0.00000
     13      11.1449      0.00000
     14      13.7348      0.00000

 k-point     4 :       0.3333    0.3333    0.0000
  band No.  band energies     occupation 
      1     -18.4713      2.00000
      2     -18.4709      2.00000
      3     -16.3256      2.00000
      4      -4.9994      1.00210
      5      -4.9989      0.99790
      6       7.2128      0.00000
      7       7.9323      0.00000
      8       7.9551      0.00000
      9       9.8783      0.00000
     10      12.4769      0.00000
     11      12.5358      0.00000
     12      13.1474      0.00000
     13      13.1762      0.00000
     14      13.6525      0.00000

 k-point     5 :      -0.3333    0.3333    0.0000
  band No.  band energies     occupation 
      1     -22.5561      2.00000
      2     -15.5976      2.00000
      3     -12.0148      2.00000
      4      -9.3350      2.00000
      5      -0.2591     -0.00000
      6       1.9554      0.00000
      7       4.7244      0.00000
      8       6.0322      0.00000
      9       7.1840      0.00000
     10       9.7035      0.00000
     11       9.8444      0.00000
     12      10.4343      0.00000
     13      11.1461      0.00000
     14      13.7554      0.00000


--------------------------------------------------------------------------------------------------------


 soft charge-density along one line, spin component           1
         0         1         2         3         4         5         6         7         8         9
 total charge-density along one line
 
 pseudopotential strength for first ion, spin component:           1
 10.479   0.027  -0.000  -0.000   0.000   0.000   0.000  -0.000
  0.027  -0.001   0.000   0.000  -0.000   0.000   0.000  -0.000
 -0.000   0.000  -4.631   0.000   0.000  -0.003   0.000   0.000
 -0.000   0.000   0.000  -4.598   0.000   0.000   0.002   0.000
  0.000  -0.000   0.000   0.000  -4.631   0.000   0.000  -0.003
  0.000   0.000  -0.003   0.000   0.000  -0.776   0.000   0.000
  0.000   0.000   0.000   0.002   0.000   0.000  -0.775   0.000
 -0.000  -0.000   0.000   0.000  -0.003   0.000   0.000  -0.776
 total augmentation occupancy for first ion, spin component:           1
  2.000   0.000   0.000   0.000   0.000   0.000   0.000   0.000
  0.000   0.000   0.000   0.000   0.000   0.000   0.000   0.000
  0.000   0.000   0.667   0.000   0.000   0.000   0.000   0.000
  0.000   0.000   0.000   0.667   0.000   0.000   0.000   0.000
  0.000   0.000   0.000   0.000   0.667   0.000   0.000   0.000
  0.000   0.000   0.000   0.000   0.000   0.000   0.000   0.000
  0.000   0.000   0.000   0.000   0.000   0.000   0.000   0.000
  0.000   0.000   0.000   0.000   0.000   0.000   0.000   0.000


----------------------------------------- Iteration    1(   4)  ---------------------------------------


     EDDAV:  cpu time    0.1160: real time    0.2751
       DOS:  cpu time    0.0020: real time    0.0016
    --------------------------------------------
      LOOP:  cpu time    0.1180: real time    0.2786

 eigenvalue-minimisations  :   168
 total energy-change (2. order) :-0.4438189E-03  (-0.4438189E-03)
 number of electron       8.0000000 magnetization 
 augmentation part        8.0000000 magnetization 

 Free energy of the ion-electron system (eV)
  ---------------------------------------------------
  alpha Z        PSCENC =         5.09113229
  Ewald energy   TEWEN  =       551.13459497
  -Hartree energ DENC   =      -777.05864007
  -exchange      EXHF   =         0.00000000
  -V(xc)+E(xc)   XCENC  =        27.46714398
  PAW double counting   =        75.66288619      -77.96384553
  entropy T*S    EENTRO =        -0.02507499
  eigenvalues    EBANDS =      -117.71012199
  atomic energy  EATOM  =       294.25444774
  Solvation  Ediel_sol  =         0.00000000
  ---------------------------------------------------
  free energy    TOTEN  =       -19.14747741 eV

  energy without entropy =      -19.12240241  energy(sigma->0) =      -19.13911908


--------------------------------------------------------------------------------------------------------




 average (electrostatic) potential at core
  the test charge radii are     0.6991
  (the norm of the test charge is              1.0000)
       1 -62.8965       2 -62.8965
 
 
 
 E-fermi :  -4.9992     XC(G=0):  -3.9366     alpha+bet : -3.1363


 k-point     1 :       0.0000    0.0000    0.0000
  band No.  band energies     occupation 
      1     -25.0240      2.00000
      2     -12.1735      2.00000
      3      -9.4712      2.00000
      4      -9.4693      2.00000
      5       1.2661      0.00000
      6       2.3004      0.00000
      7       2.3007      0.00000
      8       2.5878      0.00000
      9       3.6368      0.00000
     10       5.5836      0.00000
     11       6.3313      0.00000
     12       6.4850      0.00000
     13       7.7015      0.00000
     14      12.5201      0.00000

 k-point     2 :       0.3333    0.0000    0.0000
  band No.  band energies     occupation 
      1     -22.5561      2.00000
      2     -15.5969      2.00000
      3     -12.0160      2.00000
      4      -9.3351      2.00000
      5      -0.2589     -0.00000
      6       1.9550      0.00000
      7       4.7243      0.00000
      8       6.0321      0.00000
      9       7.1839      0.00000
     10       9.7029      0.00000
     11       9.7536      0.00000
     12      10.4078      0.00000
     13      11.1441      0.00000
     14      13.7317      0.00000

 k-point     3 :       0.0000    0.3333    0.0000
  band No.  band energies     occupation 
      1     -22.5561      2.00000
      2     -15.5970      2.00000
      3     -12.0159      2.00000
      4      -9.3351      2.00000
      5      -0.2590     -0.00000
      6       1.9550      0.00000
      7       4.7243      0.00000
      8       6.0321      0.00000
      9       7.1839      0.00000
     10       9.7029      0.00000
     11       9.7528      0.00000
     12      10.4075      0.00000
     13      11.1441      0.00000
     14      13.7316      0.00000

 k-point     4 :       0.3333    0.3333    0.0000
  band No.  band energies     occupation 
      1     -18.4714      2.00000
      2     -18.4709      2.00000
      3     -16.3256      2.00000
      4      -4.9995      1.00196
      5      -4.9990      0.99804
      6       7.2126      0.00000
      7       7.9306      0.00000
      8       7.9313      0.00000
      9       9.8704      0.00000
     10      12.4736      0.00000
     11      12.4755      0.00000
     12      13.1376      0.00000
     13      13.1403      0.00000
     14      13.5245      0.00000

 k-point     5 :      -0.3333    0.3333    0.0000
  band No.  band energies     occupation 
      1     -22.5561      2.00000
      2     -15.5976      2.00000
      3     -12.0149      2.00000
      4      -9.3350      2.00000
      5      -0.2592     -0.00000
      6       1.9549      0.00000
      7       4.7243      0.00000
      8       6.0321      0.00000
      9       7.1839      0.00000
     10       9.7029      0.00000
     11       9.7551      0.00000
     12      10.4067      0.00000
     13      11.1440      0.00000
     14      13.7329      0.00000


--------------------------------------------------------------------------------------------------------


 soft charge-density along one line, spin component           1
         0         1         2         3         4         5         6         7         8         9
 total charge-density along one line
 
 pseudopotential strength for first ion, spin component:           1
 10.479   0.027  -0.000  -0.000   0.000   0.000   0.000  -0.000
  0.027  -0.001   0.000   0.000  -0.000   0.000   0.000  -0.000
 -0.000   0.000  -4.631   0.000   0.000  -0.003   0.000   0.000
 -0.000   0.000   0.000  -4.598   0.000   0.000   0.002   0.000
  0.000  -0.000   0.000   0.000  -4.631   0.000   0.000  -0.003
  0.000   0.000  -0.003   0.000   0.000  -0.776   0.000   0.000
  0.000   0.000   0.000   0.002   0.000   0.000  -0.775   0.000
 -0.000  -0.000   0.000   0.000  -0.003   0.000   0.000  -0.776
 total augmentation occupancy for first ion, spin component:           1
  2.000   0.000   0.000   0.000   0.000   0.000   0.000   0.000
  0.000   0.000   0.000   0.000   0.000   0.000   0.000   0.000
  0.000   0.000   0.667   0.000   0.000   0.000   0.000   0.000
  0.000   0.000   0.000   0.667   0.000   0.000   0.000   0.000
  0.000   0.000   0.000   0.000   0.667   0.000   0.000   0.000
  0.000   0.000   0.000   0.000   0.000   0.000   0.000   0.000
  0.000   0.000   0.000   0.000   0.000   0.000   0.000   0.000
  0.000   0.000   0.000   0.000   0.000   0.000   0.000   0.000


----------------------------------------- Iteration    1(   5)  ---------------------------------------


     EDDAV:  cpu time    0.2000: real time    0.3692
       DOS:  cpu time    0.0000: real time    0.0002
    CHARGE:  cpu time    0.0050: real time    0.0143
    MIXING:  cpu time    0.0000: real time    0.0004
    --------------------------------------------
      LOOP:  cpu time    0.2050: real time    0.3863

 eigenvalue-minimisations  :   168
 total energy-change (2. order) :-0.1742625E-05  (-0.1741928E-05)
 number of electron       8.0000000 magnetization 
 augmentation part        0.2143561 magnetization 

 Broyden mixing:
  rms(total) = 0.54824E+00    rms(broyden)= 0.54817E+00
  rms(prec ) = 0.67471E+00
  weight for this iteration     100.00

 Free energy of the ion-electron system (eV)
  ---------------------------------------------------
  alpha Z        PSCENC =         5.09113229
  Ewald energy   TEWEN  =       551.13459497
  -Hartree energ DENC   =      -777.05864007
  -exchange      EXHF   =         0.00000000
  -V(xc)+E(xc)   XCENC  =        27.46714398
  PAW double counting   =        75.66288619      -77.96384553
  entropy T*S    EENTRO =        -0.02507499
  eigenvalues    EBANDS =      -117.71012374
  atomic energy  EATOM  =       294.25444774
  Solvation  Ediel_sol  =         0.00000000
  ---------------------------------------------------
  free energy    TOTEN  =       -19.14747915 eV

  energy without entropy =      -19.12240416  energy(sigma->0) =      -19.13912082


--------------------------------------------------------------------------------------------------------




 average (electrostatic) potential at core
  the test charge radii are     0.6991
  (the norm of the test charge is              1.0000)
       1 -62.8965       2 -62.8965
 
 
 
 E-fermi :  -4.9992     XC(G=0):  -3.9366     alpha+bet : -3.1363


 k-point     1 :       0.0000    0.0000    0.0000
  band No.  band energies     occupation 
      1     -25.0240      2.00000
      2     -12.1735      2.00000
      3      -9.4713      2.00000
      4      -9.4693      2.00000
      5       1.2661      0.00000
      6       2.3004      0.00000
      7       2.3007      0.00000
      8       2.5878      0.00000
      9       3.6368      0.00000
     10       5.5835      0.00000
     11       6.3313      0.00000
     12       6.4850      0.00000
     13       7.7015      0.00000
     14      12.5201      0.00000

 k-point     2 :       0.3333    0.0000    0.0000
  band No.  band energies     occupation 
      1     -22.5561      2.00000
      2     -15.5969      2.00000
      3     -12.0160      2.00000
      4      -9.3351      2.00000
      5      -0.2589     -0.00000
      6       1.9549      0.00000
      7       4.7243      0.00000
      8       6.0321      0.00000
      9       7.1839      0.00000
     10       9.7029      0.00000
     11       9.7530      0.00000
     12      10.4074      0.00000
     13      11.1441      0.00000
     14      13.7315      0.00000

 k-point     3 :       0.0000    0.3333    0.0000
  band No.  band energies     occupation 
      1     -22.5561      2.00000
      2     -15.5970      2.00000
      3     -12.0159      2.00000
      4      -9.3351      2.00000
      5      -0.2590     -0.00000
      6       1.9550      0.00000
      7       4.7243      0.00000
      8       6.0321      0.00000
      9       7.1839      0.00000
     10       9.7029      0.00000
     11       9.7528      0.00000
     12      10.4074      0.00000
     13      11.1441      0.00000
     14      13.7315      0.00000

 k-point     4 :       0.3333    0.3333    0.0000
  band No.  band energies     occupation 
      1     -18.4714      2.00000
      2     -18.4709      2.00000
      3     -16.3256      2.00000
      4      -4.9995      1.00196
      5      -4.9990      0.99804
      6       7.2126      0.00000
      7       7.9305      0.00000
      8       7.9312      0.00000
      9       9.8703      0.00000
     10      12.4734      0.00000
     11      12.4735      0.00000
     12      13.1371      0.00000
     13      13.1373      0.00000
     14      13.5110      0.00000

 k-point     5 :      -0.3333    0.3333    0.0000
  band No.  band energies     occupation 
      1     -22.5561      2.00000
      2     -15.5976      2.00000
      3     -12.0149      2.00000
      4      -9.3350      2.00000
      5      -0.2592     -0.00000
      6       1.9549      0.00000
      7       4.7243      0.00000
      8       6.0321      0.00000
      9       7.1839      0.00000
     10       9.7029      0.00000
     11       9.7535      0.00000
     12      10.4064      0.00000
     13      11.1440      0.00000
     14      13.7317      0.00000


--------------------------------------------------------------------------------------------------------


 soft charge-density along one line, spin component           1
         0         1         2         3         4         5         6         7         8         9
 total charge-density along one line
 
 pseudopotential strength for first ion, spin component:           1
 10.479   0.027  -0.000  -0.000   0.000   0.000   0.000  -0.000
  0.027  -0.001   0.000   0.000  -0.000   0.000   0.000  -0.000
 -0.000   0.000  -4.631   0.000   0.000  -0.003   0.000   0.000
 -0.000   0.000   0.000  -4.598   0.000   0.000   0.002   0.000
  0.000  -0.000   0.000   0.000  -4.631   0.000   0.000  -0.003
  0.000   0.000  -0.003   0.000   0.000  -0.776   0.000   0.000
  0.000   0.000   0.000   0.002   0.000   0.000  -0.775   0.000
 -0.000  -0.000   0.000   0.000  -0.003   0.000   0.000  -0.776
 total augmentation occupancy for first ion, spin component:           1
  1.494  -0.938   0.000   0.000   0.000  -0.000  -0.000   0.000
 -0.938   0.739  -0.000   0.000  -0.000  -0.000   0.000  -0.000
  0.000  -0.000   1.289  -0.000  -0.000   0.207  -0.000   0.000
  0.000   0.000  -0.000   1.055  -0.000   0.000   0.077   0.000
  0.000  -0.000  -0.000  -0.000   1.289   0.000  -0.000   0.207
 -0.000  -0.000   0.207   0.000   0.000   0.039  -0.000   0.000
 -0.000   0.000  -0.000   0.077  -0.000  -0.000   0.008  -0.000
  0.000  -0.000   0.000   0.000   0.207   0.000  -0.000   0.039


----------------------------------------- Iteration    1(   6)  ---------------------------------------


    POTLOK:  cpu time    0.0050: real time    0.0046
    SETDIJ:  cpu time    0.0020: real time    0.0027
     EDDAV:  cpu time    0.2440: real time    0.4096
       DOS:  cpu time    0.0020: real time    0.0013
    CHARGE:  cpu time    0.0080: real time    0.0090
    MIXING:  cpu time    0.0010: real time    0.0008
    --------------------------------------------
      LOOP:  cpu time    0.2630: real time    0.4301

 eigenvalue-minimisations  :   196
 total energy-change (2. order) : 0.8838393E+00  (-0.8484042E-01)
 number of electron       8.0000000 magnetization 
 augmentation part        0.2053082 magnetization 

 Broyden mixing:
  rms(total) = 0.29092E+00    rms(broyden)= 0.29089E+00
  rms(prec ) = 0.36082E+00
  weight for this iteration     100.00

 eigenvalues of (default mixing * dielectric matrix)
  average eigenvalue GAMMA=   2.0604
  2.0604

 Free energy of the ion-electron system (eV)
  ---------------------------------------------------
  alpha Z        PSCENC =         5.09113229
  Ewald energy   TEWEN  =       551.13459497
  -Hartree energ DENC   =      -787.55184664
  -exchange      EXHF   =         0.00000000
  -V(xc)+E(xc)   XCENC  =        27.95951175
  PAW double counting   =       102.24590673     -104.72182308
  entropy T*S    EENTRO =        -0.02507502
  eigenvalues    EBANDS =      -106.65048857
  atomic energy  EATOM  =       294.25444774
  Solvation  Ediel_sol  =         0.00000000
  ---------------------------------------------------
  free energy    TOTEN  =       -18.26363982 eV

  energy without entropy =      -18.23856480  energy(sigma->0) =      -18.25528148


--------------------------------------------------------------------------------------------------------




 average (electrostatic) potential at core
  the test charge radii are     0.6991
  (the norm of the test charge is              1.0000)
       1 -60.5655       2 -60.5655
 
 
 
 E-fermi :  -3.9253     XC(G=0):  -4.1646     alpha+bet : -3.1363


 k-point     1 :       0.0000    0.0000    0.0000
  band No.  band energies     occupation 
      1     -23.6880      2.00000
      2     -11.2541      2.00000
      3      -7.7482      2.00000
      4      -7.7464      2.00000
      5       1.0525     -0.00000
      6       2.2712      0.00000
      7       3.1021      0.00000
      8       3.7694      0.00000
      9       3.7697      0.00000
     10       6.0885      0.00000
     11       6.9587      0.00000
     12       7.3651      0.00000
     13       7.7365      0.00000
     14      12.2560      0.00000

 k-point     2 :       0.3333    0.0000    0.0000
  band No.  band energies     occupation 
      1     -21.1761      2.00000
      2     -14.0786      2.00000
      3     -10.3698      2.00000
      4      -8.3623      2.00000
      5       0.8663     -0.00000
      6       3.2315      0.00000
      7       4.5556      0.00000
      8       5.7628      0.00000
      9       6.6487      0.00000
     10       9.3786      0.00000
     11      10.7930      0.00000
     12      11.4058      0.00000
     13      11.7269      0.00000
     14      13.8463      0.00000

 k-point     3 :       0.0000    0.3333    0.0000
  band No.  band energies     occupation 
      1     -21.1761      2.00000
      2     -14.0787      2.00000
      3     -10.3697      2.00000
      4      -8.3623      2.00000
      5       0.8662     -0.00000
      6       3.2315      0.00000
      7       4.5556      0.00000
      8       5.7628      0.00000
      9       6.6487      0.00000
     10       9.3786      0.00000
     11      10.7930      0.00000
     12      11.4057      0.00000
     13      11.7269      0.00000
     14      13.8463      0.00000

 k-point     4 :       0.3333    0.3333    0.0000
  band No.  band energies     occupation 
      1     -16.9932      2.00000
      2     -16.9930      2.00000
      3     -14.8736      2.00000
      4      -3.9255      1.00171
      5      -3.9251      0.99829
      6       7.5024      0.00000
      7       9.1557      0.00000
      8       9.1563      0.00000
      9      10.3878      0.00000
     10      12.4389      0.00000
     11      12.4403      0.00000
     12      12.8451      0.00000
     13      12.8460      0.00000
     14      13.2069      0.00000

 k-point     5 :      -0.3333    0.3333    0.0000
  band No.  band energies     occupation 
      1     -21.1761      2.00000
      2     -14.0793      2.00000
      3     -10.3688      2.00000
      4      -8.3622      2.00000
      5       0.8660     -0.00000
      6       3.2314      0.00000
      7       4.5556      0.00000
      8       5.7628      0.00000
      9       6.6487      0.00000
     10       9.3786      0.00000
     11      10.7929      0.00000
     12      11.4064      0.00000
     13      11.7259      0.00000
     14      13.8463      0.00000


--------------------------------------------------------------------------------------------------------


 soft charge-density along one line, spin component           1
         0         1         2         3         4         5         6         7         8         9
 total charge-density along one line
 
 pseudopotential strength for first ion, spin component:           1
 10.364   0.023   0.000  -0.000  -0.000  -0.000   0.000   0.000
  0.023  -0.001  -0.000   0.000   0.000  -0.000   0.000   0.000
  0.000  -0.000  -4.487  -0.000   0.000  -0.012  -0.000   0.000
 -0.000   0.000  -0.000  -4.465   0.000  -0.000  -0.008   0.000
 -0.000   0.000   0.000   0.000  -4.487   0.000   0.000  -0.012
 -0.000  -0.000  -0.012  -0.000   0.000  -0.774  -0.000   0.000
  0.000   0.000  -0.000  -0.008   0.000  -0.000  -0.774   0.000
  0.000   0.000   0.000   0.000  -0.012   0.000   0.000  -0.774
 total augmentation occupancy for first ion, spin component:           1
  1.468  -1.062  -0.000  -0.000  -0.000  -0.000   0.000   0.000
 -1.062   0.921  -0.000   0.000   0.000  -0.000   0.000   0.000
 -0.000  -0.000   1.257   0.000  -0.000   0.217  -0.000   0.000
 -0.000   0.000   0.000   0.995   0.000   0.000   0.092   0.000
 -0.000   0.000  -0.000   0.000   1.257   0.000  -0.000   0.217
 -0.000  -0.000   0.217   0.000   0.000   0.043  -0.000   0.000
  0.000   0.000  -0.000   0.092  -0.000  -0.000   0.011  -0.000
  0.000   0.000   0.000   0.000   0.217   0.000  -0.000   0.043


----------------------------------------- Iteration    1(   7)  ---------------------------------------


    POTLOK:  cpu time    0.0130: real time    0.0128
    SETDIJ:  cpu time    0.0060: real time    0.0061
     EDDAV:  cpu time    0.1940: real time    0.3680
       DOS:  cpu time    0.0000: real time    0.0002
    CHARGE:  cpu time    0.0060: real time    0.0055
    MIXING:  cpu time    0.0000: real time    0.0005
    --------------------------------------------
      LOOP:  cpu time    0.2210: real time    0.3961

 eigenvalue-minimisations  :   196
 total energy-change (2. order) : 0.3419778E+00  (-0.1016153E+00)
 number of electron       8.0000000 magnetization 
 augmentation part        0.1955150 magnetization 

 Broyden mixing:
  rms(total) = 0.49600E-01    rms(broyden)= 0.49417E-01
  rms(prec ) = 0.66783E-01
  weight for this iteration     100.00

 eigenvalues of (default mixing * dielectric matrix)
  average eigenvalue GAMMA=   2.2455
  2.1008  2.3902

 Free energy of the ion-electron system (eV)
  ---------------------------------------------------
  alpha Z        PSCENC =         5.09113229
  Ewald energy   TEWEN  =       551.13459497
  -Hartree energ DENC   =      -800.87498974
  -exchange      EXHF   =         0.00000000
  -V(xc)+E(xc)   XCENC  =        28.57556609
  PAW double counting   =       136.46938364     -139.09514625
  entropy T*S    EENTRO =        -0.02507497
  eigenvalues    EBANDS =       -93.45157585
  atomic energy  EATOM  =       294.25444774
  Solvation  Ediel_sol  =         0.00000000
  ---------------------------------------------------
  free energy    TOTEN  =       -17.92166207 eV

  energy without entropy =      -17.89658710  energy(sigma->0) =      -17.91330375


--------------------------------------------------------------------------------------------------------




 average (electrostatic) potential at core
  the test charge radii are     0.6991
  (the norm of the test charge is              1.0000)
       1 -58.0091       2 -58.0080
 
 
 
 E-fermi :  -2.6481     XC(G=0):  -4.1967     alpha+bet : -3.1363


 k-point     1 :       0.0000    0.0000    0.0000
  band No.  band energies     occupation 
      1     -22.0701      2.00000
      2     -10.1366      2.00000
      3      -5.7204      2.00000
      4      -5.7189      2.00000
      5       0.8944     -0.00000
      6       2.0098     -0.00000
      7       2.8915      0.00000
      8       5.5159      0.00000
      9       5.5162      0.00000
     10       5.9563      0.00000
     11       7.1699      0.00000
     12       8.5645      0.00000
     13       9.3856      0.00000
     14      12.1634      0.00000

 k-point     2 :       0.3333    0.0000    0.0000
  band No.  band energies     occupation 
      1     -19.5138      2.00000
      2     -12.2718      2.00000
      3      -8.4250      2.00000
      4      -7.1911      2.00000
      5       2.1884     -0.00000
      6       4.3889      0.00000
      7       4.8325      0.00000
      8       5.5427      0.00000
      9       6.4410      0.00000
     10       9.3069      0.00000
     11      10.6263      0.00000
     12      13.0275      0.00000
     13      13.3365      0.00000
     14      14.1569      0.00000

 k-point     3 :       0.0000    0.3333    0.0000
  band No.  band energies     occupation 
      1     -19.5138      2.00000
      2     -12.2719      2.00000
      3      -8.4249      2.00000
      4      -7.1911      2.00000
      5       2.1884     -0.00000
      6       4.3889      0.00000
      7       4.8325      0.00000
      8       5.5427      0.00000
      9       6.4410      0.00000
     10       9.3069      0.00000
     11      10.6263      0.00000
     12      13.0273      0.00000
     13      13.3363      0.00000
     14      14.1570      0.00000

 k-point     4 :       0.3333    0.3333    0.0000
  band No.  band energies     occupation 
      1     -15.2337      2.00000
      2     -15.2335      2.00000
      3     -13.1233      2.00000
      4      -2.6483      1.00217
      5      -2.6478      0.99783
      6       7.9957      0.00000
      7      10.2641      0.00000
      8      10.2645      0.00000
      9      10.8989      0.00000
     10      12.6133      0.00000
     11      12.6134      0.00000
     12      12.6259      0.00000
     13      12.6260      0.00000
     14      13.1122      0.00000

 k-point     5 :      -0.3333    0.3333    0.0000
  band No.  band energies     occupation 
      1     -19.5138      2.00000
      2     -12.2723      2.00000
      3      -8.4241      2.00000
      4      -7.1910      2.00000
      5       2.1882     -0.00000
      6       4.3888      0.00000
      7       4.8324      0.00000
      8       5.5427      0.00000
      9       6.4410      0.00000
     10       9.3069      0.00000
     11      10.6263      0.00000
     12      13.0265      0.00000
     13      13.3369      0.00000
     14      14.1571      0.00000


--------------------------------------------------------------------------------------------------------


 soft charge-density along one line, spin component           1
         0         1         2         3         4         5         6         7         8         9
 total charge-density along one line
 
 pseudopotential strength for first ion, spin component:           1
 10.225   0.019   0.000  -0.000  -0.000  -0.000   0.000   0.000
  0.019  -0.002  -0.000   0.000   0.000  -0.000   0.000   0.000
  0.000  -0.000  -4.332  -0.000  -0.000  -0.019  -0.000   0.000
 -0.000   0.000  -0.000  -4.325   0.000  -0.000  -0.016  -0.000
 -0.000   0.000  -0.000   0.000  -4.332   0.000  -0.000  -0.019
 -0.000  -0.000  -0.019  -0.000   0.000  -0.772  -0.000  -0.000
  0.000   0.000  -0.000  -0.016  -0.000  -0.000  -0.772   0.000
  0.000   0.000   0.000  -0.000  -0.019  -0.000   0.000  -0.772
 total augmentation occupancy for first ion, spin component:           1
  1.441  -1.162   0.000  -0.000   0.000  -0.000   0.000  -0.000
 -1.162   1.092   0.000   0.000  -0.000   0.000   0.000  -0.000
  0.000   0.000   1.224   0.000  -0.000   0.227   0.000   0.000
 -0.000   0.000   0.000   0.932  -0.000   0.000   0.107   0.000
  0.000  -0.000  -0.000  -0.000   1.224   0.000  -0.000   0.227
 -0.000   0.000   0.227   0.000   0.000   0.048   0.000   0.000
  0.000   0.000   0.000   0.107  -0.000   0.000   0.014  -0.000
 -0.000  -0.000   0.000   0.000   0.227   0.000  -0.000   0.048


----------------------------------------- Iteration    1(   8)  ---------------------------------------


    POTLOK:  cpu time    0.0050: real time    0.0048
    SETDIJ:  cpu time    0.0030: real time    0.0025
     EDDAV:  cpu time    0.1530: real time    0.3040
       DOS:  cpu time    0.0020: real time    0.0019
    CHARGE:  cpu time    0.0080: real time    0.0082
    MIXING:  cpu time    0.0000: real time    0.0003
    --------------------------------------------
      LOOP:  cpu time    0.1720: real time    0.3239

 eigenvalue-minimisations  :   210
 total energy-change (2. order) : 0.9663471E-02  (-0.6753099E-03)
 number of electron       8.0000000 magnetization 
 augmentation part        0.1953586 magnetization 

 Broyden mixing:
  rms(total) = 0.78228E-02    rms(broyden)= 0.77707E-02
  rms(prec ) = 0.26163E-01
  weight for this iteration     100.00

 eigenvalues of (default mixing * dielectric matrix)
  average eigenvalue GAMMA=   1.9593
  1.1742  2.0700  2.6336

 Free energy of the ion-electron system (eV)
  ---------------------------------------------------
  alpha Z        PSCENC =         5.09113229
  Ewald energy   TEWEN  =       551.13459497
  -Hartree energ DENC   =      -803.48957692
  -exchange      EXHF   =         0.00000000
  -V(xc)+E(xc)   XCENC  =        28.61874722
  PAW double counting   =       137.96457965     -140.53666745
  entropy T*S    EENTRO =        -0.02507281
  eigenvalues    EBANDS =       -90.92418331
  atomic energy  EATOM  =       294.25444774
  Solvation  Ediel_sol  =         0.00000000
  ---------------------------------------------------
  free energy    TOTEN  =       -17.91199860 eV

  energy without entropy =      -17.88692579  energy(sigma->0) =      -17.90364100


--------------------------------------------------------------------------------------------------------




 average (electrostatic) potential at core
  the test charge radii are     0.6991
  (the norm of the test charge is              1.0000)
       1 -57.8190       2 -57.8243
 
 
 
 E-fermi :  -2.3578     XC(G=0):  -4.1941     alpha+bet : -3.1363


 k-point     1 :       0.0000    0.0000    0.0000
  band No.  band energies     occupation 
      1     -21.7421      2.00000
      2      -9.8435      2.00000
      3      -5.4028      2.00000
      4      -5.4012      2.00000
      5       0.9471     -0.00000
      6       2.0646     -0.00000
      7       2.6965     -0.00000
      8       5.8389      0.00000
      9       5.8391      0.00000
     10       5.8791      0.00000
     11       7.1230      0.00000
     12       8.8560      0.00000
     13       9.6861      0.00000
     14      12.1504      0.00000

 k-point     2 :       0.3333    0.0000    0.0000
  band No.  band energies     occupation 
      1     -19.1872      2.00000
      2     -11.9479      2.00000
      3      -8.1040      2.00000
      4      -6.8990      2.00000
      5       2.4799     -0.00000
      6       4.4730      0.00000
      7       5.1486      0.00000
      8       5.6093      0.00000
      9       6.2413      0.00000
     10       9.2444      0.00000
     11      10.5851      0.00000
     12      13.2889      0.00000
     13      13.6465      0.00000
     14      14.3107      0.00000

 k-point     3 :       0.0000    0.3333    0.0000
  band No.  band energies     occupation 
      1     -19.1872      2.00000
      2     -11.9480      2.00000
      3      -8.1040      2.00000
      4      -6.8990      2.00000
      5       2.4798     -0.00000
      6       4.4730      0.00000
      7       5.1486      0.00000
      8       5.6093      0.00000
      9       6.2413      0.00000
     10       9.2445      0.00000
     11      10.5851      0.00000
     12      13.2888      0.00000
     13      13.6463      0.00000
     14      14.3107      0.00000

 k-point     4 :       0.3333    0.3333    0.0000
  band No.  band energies     occupation 
      1     -14.9139      2.00000
      2     -14.9130      2.00000
      3     -12.7857      2.00000
      4      -2.3589      1.00932
      5      -2.3567      0.99068
      6       8.2983      0.00000
      7      10.4870      0.00000
      8      10.4877      0.00000
      9      11.1332      0.00000
     10      12.5243      0.00000
     11      12.5246      0.00000
     12      12.6897      0.00000
     13      12.6899      0.00000
     14      12.9043      0.00000

 k-point     5 :      -0.3333    0.3333    0.0000
  band No.  band energies     occupation 
      1     -19.1872      2.00000
      2     -11.9484      2.00000
      3      -8.1032      2.00000
      4      -6.8990      2.00000
      5       2.4796     -0.00000
      6       4.4730      0.00000
      7       5.1484      0.00000
      8       5.6093      0.00000
      9       6.2413      0.00000
     10       9.2445      0.00000
     11      10.5851      0.00000
     12      13.2881      0.00000
     13      13.6469      0.00000
     14      14.3108      0.00000


--------------------------------------------------------------------------------------------------------


 soft charge-density along one line, spin component           1
         0         1         2         3         4         5         6         7         8         9
 total charge-density along one line
 
 pseudopotential strength for first ion, spin component:           1
 10.204   0.018   0.000   0.000  -0.000  -0.000  -0.000   0.000
  0.018  -0.002   0.000   0.000   0.000  -0.000  -0.000   0.000
  0.000   0.000  -4.324   0.000  -0.000  -0.017  -0.000   0.000
  0.000   0.000   0.000  -4.319  -0.000  -0.000  -0.014  -0.000
 -0.000   0.000  -0.000  -0.000  -4.324   0.000  -0.000  -0.017
 -0.000  -0.000  -0.017  -0.000   0.000  -0.772   0.000  -0.000
 -0.000  -0.000  -0.000  -0.014  -0.000   0.000  -0.772  -0.000
  0.000   0.000   0.000  -0.000  -0.017  -0.000  -0.000  -0.772
 total augmentation occupancy for first ion, spin component:           1
  1.442  -1.147   0.000   0.000   0.000  -0.000   0.000   0.000
 -1.147   1.070  -0.000   0.000  -0.000  -0.000   0.000  -0.000
  0.000  -0.000   1.225   0.000  -0.000   0.226   0.000   0.000
  0.000   0.000   0.000   0.928   0.000   0.000   0.106   0.000
  0.000  -0.000  -0.000   0.000   1.225   0.000   0.000   0.226
 -0.000  -0.000   0.226   0.000   0.000   0.048   0.000   0.000
  0.000   0.000   0.000   0.106   0.000   0.000   0.014   0.000
  0.000  -0.000   0.000   0.000   0.226   0.000   0.000   0.048


----------------------------------------- Iteration    1(   9)  ---------------------------------------


    POTLOK:  cpu time    0.0050: real time    0.0049
    SETDIJ:  cpu time    0.0030: real time    0.0027
     EDDAV:  cpu time    0.1850: real time    0.3555
       DOS:  cpu time    0.0000: real time    0.0009
    CHARGE:  cpu time    0.0050: real time    0.0047
    MIXING:  cpu time    0.0000: real time    0.0004
    --------------------------------------------
      LOOP:  cpu time    0.1990: real time    0.3711

 eigenvalue-minimisations  :   252
 total energy-change (2. order) : 0.2027184E-02  (-0.1409118E-03)
 number of electron       8.0000000 magnetization 
 augmentation part        0.1951083 magnetization 

 Broyden mixing:
  rms(total) = 0.88062E-02    rms(broyden)= 0.87910E-02
  rms(prec ) = 0.21354E-01
  weight for this iteration     100.00

 eigenvalues of (default mixing * dielectric matrix)
  average eigenvalue GAMMA=   1.6710
  2.7299  2.0769  1.4649  0.4122

 Free energy of the ion-electron system (eV)
  ---------------------------------------------------
  alpha Z        PSCENC =         5.09113229
  Ewald energy   TEWEN  =       551.13459497
  -Hartree energ DENC   =      -804.71835413
  -exchange      EXHF   =         0.00000000
  -V(xc)+E(xc)   XCENC  =        28.64140754
  PAW double counting   =       138.22125408     -140.79027823
  entropy T*S    EENTRO =        -0.02505839
  eigenvalues    EBANDS =       -89.71911730
  atomic energy  EATOM  =       294.25444774
  Solvation  Ediel_sol  =         0.00000000
  ---------------------------------------------------
  free energy    TOTEN  =       -17.90997141 eV

  energy without entropy =      -17.88491302  energy(sigma->0) =      -17.90161862


--------------------------------------------------------------------------------------------------------




 average (electrostatic) potential at core
  the test charge radii are     0.6991
  (the norm of the test charge is              1.0000)
       1 -57.6783       2 -57.6638
 
 
 
 E-fermi :  -2.2170     XC(G=0):  -4.1574     alpha+bet : -3.1363


 k-point     1 :       0.0000    0.0000    0.0000
  band No.  band energies     occupation 
      1     -21.5895      2.00000
      2      -9.7071      2.00000
      3      -5.2458      2.00000
      4      -5.2442      2.00000
      5       0.9816     -0.00000
      6       2.1182     -0.00000
      7       2.6662     -0.00000
      8       5.8803      0.00000
      9       5.9928      0.00000
     10       5.9930      0.00000
     11       7.1708      0.00000
     12       9.0049      0.00000
     13       9.8364      0.00000
     14      12.1906      0.00000

 k-point     2 :       0.3333    0.0000    0.0000
  band No.  band energies     occupation 
      1     -19.0341      2.00000
      2     -11.7931      2.00000
      3      -7.9478      2.00000
      4      -6.7611      2.00000
      5       2.6210     -0.00000
      6       4.5153      0.00000
      7       5.2954      0.00000
      8       5.6648      0.00000
      9       6.2120      0.00000
     10       9.2537      0.00000
     11      10.6341      0.00000
     12      13.4088      0.00000
     13      13.8013      0.00000
     14      14.3845      0.00000

 k-point     3 :       0.0000    0.3333    0.0000
  band No.  band energies     occupation 
      1     -19.0341      2.00000
      2     -11.7932      2.00000
      3      -7.9477      2.00000
      4      -6.7611      2.00000
      5       2.6210     -0.00000
      6       4.5153      0.00000
      7       5.2954      0.00000
      8       5.6648      0.00000
      9       6.2120      0.00000
     10       9.2537      0.00000
     11      10.6341      0.00000
     12      13.4088      0.00000
     13      13.8012      0.00000
     14      14.3845      0.00000

 k-point     4 :       0.3333    0.3333    0.0000
  band No.  band energies     occupation 
      1     -14.7609      2.00000
      2     -14.7585      2.00000
      3     -12.6301      2.00000
      4      -2.2199      1.02522
      5      -2.2140      0.97478
      6       8.4082      0.00000
      7      10.5893      0.00000
      8      10.5911      0.00000
      9      11.2143      0.00000
     10      12.5335      0.00000
     11      12.5341      0.00000
     12      12.7421      0.00000
     13      12.7422      0.00000
     14      12.8849      0.00000

 k-point     5 :      -0.3333    0.3333    0.0000
  band No.  band energies     occupation 
      1     -19.0342      2.00000
      2     -11.7936      2.00000
      3      -7.9469      2.00000
      4      -6.7611      2.00000
      5       2.6208     -0.00000
      6       4.5152      0.00000
      7       5.2952      0.00000
      8       5.6648      0.00000
      9       6.2120      0.00000
     10       9.2537      0.00000
     11      10.6341      0.00000
     12      13.4080      0.00000
     13      13.8018      0.00000
     14      14.3846      0.00000


--------------------------------------------------------------------------------------------------------


 soft charge-density along one line, spin component           1
         0         1         2         3         4         5         6         7         8         9
 total charge-density along one line
 
 pseudopotential strength for first ion, spin component:           1
 10.195   0.018  -0.000   0.000  -0.000  -0.000  -0.000   0.000
  0.018  -0.002   0.000   0.000   0.000  -0.000  -0.000   0.000
 -0.000   0.000  -4.316   0.000  -0.000  -0.017   0.000   0.000
  0.000   0.000   0.000  -4.312  -0.000   0.000  -0.014  -0.000
 -0.000   0.000  -0.000  -0.000  -4.316   0.000  -0.000  -0.017
 -0.000  -0.000  -0.017   0.000   0.000  -0.772   0.000  -0.000
 -0.000  -0.000   0.000  -0.014  -0.000   0.000  -0.772  -0.000
  0.000   0.000   0.000  -0.000  -0.017  -0.000  -0.000  -0.772
 total augmentation occupancy for first ion, spin component:           1
  1.442  -1.144   0.000   0.000   0.000  -0.000   0.000   0.000
 -1.144   1.065  -0.000   0.000  -0.000  -0.000   0.000  -0.000
  0.000  -0.000   1.225   0.000  -0.000   0.226   0.000   0.000
  0.000   0.000   0.000   0.935   0.000   0.000   0.106   0.000
  0.000  -0.000  -0.000   0.000   1.226   0.000   0.000   0.226
 -0.000  -0.000   0.226   0.000   0.000   0.048   0.000   0.000
  0.000   0.000   0.000   0.106   0.000   0.000   0.014   0.000
  0.000  -0.000   0.000   0.000   0.226   0.000   0.000   0.047


----------------------------------------- Iteration    1(  10)  ---------------------------------------


    POTLOK:  cpu time    0.0070: real time    0.0071
    SETDIJ:  cpu time    0.0040: real time    0.0034
     EDDAV:  cpu time    0.1350: real time    0.3031
       DOS:  cpu time    0.0000: real time    0.0003
    CHARGE:  cpu time    0.0070: real time    0.0072
    MIXING:  cpu time    0.0010: real time    0.0007
    --------------------------------------------
      LOOP:  cpu time    0.1550: real time    0.3244

 eigenvalue-minimisations  :   154
 total energy-change (2. order) : 0.8107097E-03  (-0.2125232E-03)
 number of electron       8.0000000 magnetization 
 augmentation part        0.1949891 magnetization 

 Broyden mixing:
  rms(total) = 0.12122E-01    rms(broyden)= 0.12088E-01
  rms(prec ) = 0.20158E-01
  weight for this iteration     100.00

 eigenvalues of (default mixing * dielectric matrix)
  average eigenvalue GAMMA=   1.9124
  3.7160  2.5105  2.0008  0.9675  0.3671

 Free energy of the ion-electron system (eV)
  ---------------------------------------------------
  alpha Z        PSCENC =         5.09113229
  Ewald energy   TEWEN  =       551.13459497
  -Hartree energ DENC   =      -805.71144102
  -exchange      EXHF   =         0.00000000
  -V(xc)+E(xc)   XCENC  =        28.65429853
  PAW double counting   =       137.97929531     -140.54892611
  entropy T*S    EENTRO =        -0.02501369
  eigenvalues    EBANDS =       -88.73754874
  atomic energy  EATOM  =       294.25444774
  Solvation  Ediel_sol  =         0.00000000
  ---------------------------------------------------
  free energy    TOTEN  =       -17.90916071 eV

  energy without entropy =      -17.88414702  energy(sigma->0) =      -17.90082281


--------------------------------------------------------------------------------------------------------




 average (electrostatic) potential at core
  the test charge radii are     0.6991
  (the norm of the test charge is              1.0000)
       1 -57.5303       2 -57.5583
 
 
 
 E-fermi :  -2.0984     XC(G=0):  -4.1082     alpha+bet : -3.1363


 k-point     1 :       0.0000    0.0000    0.0000
  band No.  band energies     occupation 
      1     -21.4657      2.00000
      2      -9.5921      2.00000
      3      -5.1203      2.00000
      4      -5.1187      2.00000
      5       1.0279     -0.00000
      6       2.1861     -0.00000
      7       2.6607     -0.00000
      8       5.9029      0.00000
      9       6.1175      0.00000
     10       6.1178      0.00000
     11       7.2382      0.00000
     12       9.1286      0.00000
     13       9.9603      0.00000
     14      12.2590      0.00000

 k-point     2 :       0.3333    0.0000    0.0000
  band No.  band energies     occupation 
      1     -18.9100      2.00000
      2     -11.6683      2.00000
      3      -7.8225      2.00000
      4      -6.6449      2.00000
      5       2.7394     -0.00000
      6       4.5662      0.00000
      7       5.4149      0.00000
      8       5.7332      0.00000
      9       6.2080      0.00000
     10       9.2829      0.00000
     11      10.7018      0.00000
     12      13.5104      0.00000
     13      13.9265      0.00000
     14      14.4587      0.00000

 k-point     3 :       0.0000    0.3333    0.0000
  band No.  band energies     occupation 
      1     -18.9100      2.00000
      2     -11.6684      2.00000
      3      -7.8224      2.00000
      4      -6.6449      2.00000
      5       2.7393     -0.00000
      6       4.5662      0.00000
      7       5.4149      0.00000
      8       5.7332      0.00000
      9       6.2080      0.00000
     10       9.2829      0.00000
     11      10.7018      0.00000
     12      13.5104      0.00000
[...]


----------------------------------------- Iteration    2(  11)  ---------------------------------------


   POT+DIJ:  cpu time    0.0130: real time    0.0125
    HAMIL1:  cpu time    0.0090: real time    0.0372
    LRDIAG:  cpu time    0.0020: real time    0.0026
    LRDIIS:  cpu time    0.0180: real time    0.0207
    LRDIAG:  cpu time    0.0010: real time    0.0013
    MIXING:  cpu time    0.0000: real time    0.0005
    --------------------------------------------
      LOOP:  cpu time    0.0480: real time    0.0802

 Broyden mixing:
  rms(total) = 0.11360E-05    rms(broyden)= 0.11355E-05
  rms(prec ) = 0.13294E-05
  weight for this iteration     100.00

 eigenvalues of (default mixing * dielectric matrix)
  average eigenvalue GAMMA=   1.7096
  2.9279  2.6735  2.4129  2.0348  1.2910  1.1124  1.0229  0.9940  0.9167

 Free energy of the ion-electron system (eV)
  ---------------------------------------------------
  -Hartree energ DENC   =        -0.01376480
  -V(xc)+E(xc)   XCENC  =         0.00107923
  PAW double counting   =         0.01356521       -0.01325218
  entropy T*S    EENTRO =         0.00000000
  eigenvalues    EBANDS =        -0.12568184
  ---------------------------------------------------
  free energy    TOTEN  =        -0.13805437 eV

  energy without entropy =       -0.13805437


----------------------------------------- Iteration    2(  12)  ---------------------------------------


   POT+DIJ:  cpu time    0.0130: real time    0.0125
    HAMIL1:  cpu time    0.0080: real time    0.0352
    LRDIAG:  cpu time    0.0020: real time    0.0025
    LRDIIS:  cpu time    0.0160: real time    0.0210
    LRDIAG:  cpu time    0.0020: real time    0.0016
    MIXING:  cpu time    0.0010: real time    0.0006
    --------------------------------------------
      LOOP:  cpu time    0.0470: real time    0.0792

 Broyden mixing:
  rms(total) = 0.46424E-06    rms(broyden)= 0.46357E-06
  rms(prec ) = 0.50839E-06
  weight for this iteration     100.00

 eigenvalues of (default mixing * dielectric matrix)
  average eigenvalue GAMMA=   1.5766
  2.9177  2.6722  2.4143  2.0317  1.3059  1.1183  1.0097  0.9900  0.9025  0.4035

 Free energy of the ion-electron system (eV)
  ---------------------------------------------------
  -Hartree energ DENC   =        -0.01376490
  -V(xc)+E(xc)   XCENC  =         0.00107924
  PAW double counting   =         0.01356515       -0.01325211
  entropy T*S    EENTRO =         0.00000000
  eigenvalues    EBANDS =        -0.12564674
  ---------------------------------------------------
  free energy    TOTEN  =        -0.13801937 eV

  energy without entropy =       -0.13801937


------------------------ aborting loop because EDIFF is reached ----------------------------------------


 change of polarisation eV/A/(eV/A) component  2 :    -0.000     0.260     0.000
 dielectric tensor                  component  2 :    -0.001     1.735     0.000


--------------------------------------------------------------------------------------------------------


    FORLOC:  cpu time    0.0000: real time    0.0004
    FORNL :  cpu time    0.0520: real time    0.4586
    STRESS:  cpu time    0.1610: real time    1.3309
    OFIELD:  cpu time    0.0000: real time    0.0001
    FORLOC:  cpu time    0.0020: real time    0.0017
    FORNL :  cpu time    0.0440: real time    0.4692
    STRESS:  cpu time    0.1470: real time    1.3915
    OFIELD:  cpu time    0.0000: real time    0.0001
    FORNLD:  cpu time    0.1210: real time    1.3677

 PIEZOELECTRIC TENSOR FIELD DIRECTION 2  (e Angst)
 -----------------------------------------------------------------------------
     0.00378 -1.30553 -0.00001           ( -0.00002 -0.00000  0.00000)
    -1.30553 -0.00378  0.00000           ( -0.00000  0.00001 -0.00000)
    -0.00001 -0.00000  0.00001           (  0.00000 -0.00000  0.00000)

 PIEZOELECTRIC TENSOR FIELD DIRECTION 2  (C/m^2)
 -----------------------------------------------------------------------------
     0.00095 -0.32674 -0.00000
    -0.32674 -0.00095  0.00000
    -0.00000 -0.00000  0.00000


      POSITION         DIRECTION 2           BORN EFFECTIVE CHARGE    (rigid.aug.   ionic)
 -----------------------------------------------------------------------------------------
      0.00584      0.00308      1.69750    -1.34669 -0.00693 -0.00002 ( -0.09739  4.00000)
      0.00581      1.43605      1.69750     1.34649 -0.01497  0.00001 ( -0.09739  4.00000)
 -----------------------------------------------------------------------------------------
    total drift (improves with k-points):  -0.00019 -0.02190 -0.00001




--------------------------------------------------------------------------------------------------------


 Linear response to external field, progress :
  Direction:   3


----------------------------------------- Iteration    3(   1)  ---------------------------------------


   POT+DIJ:  cpu time    0.0170: real time    0.0171
    HAMIL1:  cpu time    0.0180: real time    0.0519
    LRDIAG:  cpu time    0.0010: real time    0.0020
    LRDIIS:  cpu time    0.0440: real time    0.0523
    LRDIAG:  cpu time    0.0020: real time    0.0017
    --------------------------------------------
      LOOP:  cpu time    0.0820: real time    0.1252

 Free energy of the ion-electron system (eV)
  ---------------------------------------------------
  -Hartree energ DENC   =         0.00000000
  -V(xc)+E(xc)   XCENC  =         0.00000000
  PAW double counting   =         0.00000000        0.00000000
  entropy T*S    EENTRO =         0.00000000
  eigenvalues    EBANDS =        -0.08651613
  ---------------------------------------------------
  free energy    TOTEN  =        -0.08651613 eV

  energy without entropy =       -0.08651613


----------------------------------------- Iteration    3(   2)  ---------------------------------------


   POT+DIJ:  cpu time    0.0140: real time    0.0140
    HAMIL1:  cpu time    0.0090: real time    0.0439
    LRDIAG:  cpu time    0.0020: real time    0.0028
    LRDIIS:  cpu time    0.0210: real time    0.0268
    LRDIAG:  cpu time    0.0010: real time    0.0020
    MIXING:  cpu time    0.0000: real time    0.0003
    --------------------------------------------
      LOOP:  cpu time    0.0530: real time    0.0958

 Broyden mixing:
  rms(total) = 0.48726E-01    rms(broyden)= 0.48720E-01
  rms(prec ) = 0.10680E+00
  weight for this iteration     100.00

 Free energy of the ion-electron system (eV)
  ---------------------------------------------------
  -Hartree energ DENC   =         0.00000000
  -V(xc)+E(xc)   XCENC  =         0.00000000
  PAW double counting   =         0.00000000        0.00000000
  entropy T*S    EENTRO =         0.00000000
  eigenvalues    EBANDS =        -0.08801042
  ---------------------------------------------------
  free energy    TOTEN  =        -0.08801042 eV

  energy without entropy =       -0.08801042


----------------------------------------- Iteration    3(   3)  ---------------------------------------


   POT+DIJ:  cpu time    0.0180: real time    0.0170
    HAMIL1:  cpu time    0.0090: real time    0.0350
    LRDIAG:  cpu time    0.0030: real time    0.0022
    LRDIIS:  cpu time    0.0220: real time    0.0269
    LRDIAG:  cpu time    0.0020: real time    0.0017
    MIXING:  cpu time    0.0000: real time    0.0004
    --------------------------------------------
      LOOP:  cpu time    0.0590: real time    0.0887

 Broyden mixing:
  rms(total) = 0.19180E-01    rms(broyden)= 0.19180E-01
  rms(prec ) = 0.53172E-01
  weight for this iteration     100.00

 eigenvalues of (default mixing * dielectric matrix)
  average eigenvalue GAMMA=   1.3187
  1.3187

 Free energy of the ion-electron system (eV)
  ---------------------------------------------------
  -Hartree energ DENC   =        -0.00614761
  -V(xc)+E(xc)   XCENC  =         0.00015987
  PAW double counting   =         0.00002038       -0.00002037
  entropy T*S    EENTRO =         0.00000000
  eigenvalues    EBANDS =        -0.04654234
  ---------------------------------------------------
  free energy    TOTEN  =        -0.05253006 eV

  energy without entropy =       -0.05253006


----------------------------------------- Iteration    3(   4)  ---------------------------------------


   POT+DIJ:  cpu time    0.0130: real time    0.0128
    HAMIL1:  cpu time    0.0100: real time    0.0455
    LRDIAG:  cpu time    0.0030: real time    0.0027
    LRDIIS:  cpu time    0.0280: real time    0.0322
    LRDIAG:  cpu time    0.0010: real time    0.0014
    MIXING:  cpu time    0.0010: real time    0.0004
    --------------------------------------------
      LOOP:  cpu time    0.0620: real time    0.1012

 Broyden mixing:
  rms(total) = 0.10640E-01    rms(broyden)= 0.10637E-01
  rms(prec ) = 0.23295E-01
  weight for this iteration     100.00

 eigenvalues of (default mixing * dielectric matrix)
  average eigenvalue GAMMA=   1.9225
  1.9225  1.9225

 Free energy of the ion-electron system (eV)
  ---------------------------------------------------
  -Hartree energ DENC   =        -0.01784074
  -V(xc)+E(xc)   XCENC  =         0.00042317
  PAW double counting   =         0.00000414       -0.00000307
  entropy T*S    EENTRO =         0.00000000
  eigenvalues    EBANDS =        -0.02556387
  ---------------------------------------------------
  free energy    TOTEN  =        -0.04298038 eV

  energy without entropy =       -0.04298038


----------------------------------------- Iteration    3(   5)  ---------------------------------------


   POT+DIJ:  cpu time    0.0130: real time    0.0125
    HAMIL1:  cpu time    0.0080: real time    0.0331
    LRDIAG:  cpu time    0.0020: real time    0.0022
    LRDIIS:  cpu time    0.0290: real time    0.0349
    LRDIAG:  cpu time    0.0020: real time    0.0021
    MIXING:  cpu time    0.0010: real time    0.0005
    --------------------------------------------
      LOOP:  cpu time    0.0670: real time    0.0986

 Broyden mixing:
  rms(total) = 0.43889E-02    rms(broyden)= 0.43878E-02
  rms(prec ) = 0.10438E-01
  weight for this iteration     100.00

 eigenvalues of (default mixing * dielectric matrix)
  average eigenvalue GAMMA=   2.3930
  2.8014  2.8014  1.5764

 Free energy of the ion-electron system (eV)
  ---------------------------------------------------
  -Hartree energ DENC   =        -0.02196491
  -V(xc)+E(xc)   XCENC  =         0.00051602
  PAW double counting   =         0.00019368       -0.00018600
  entropy T*S    EENTRO =         0.00000000
  eigenvalues    EBANDS =        -0.02016435
  ---------------------------------------------------
  free energy    TOTEN  =        -0.04160555 eV

  energy without entropy =       -0.04160555


----------------------------------------- Iteration    3(   6)  ---------------------------------------


   POT+DIJ:  cpu time    0.0150: real time    0.0143
    HAMIL1:  cpu time    0.0080: real time    0.0332
    LRDIAG:  cpu time    0.0030: real time    0.0027
    LRDIIS:  cpu time    0.0460: real time    0.0516
    LRDIAG:  cpu time    0.0010: real time    0.0017
    MIXING:  cpu time    0.0010: real time    0.0007
    --------------------------------------------
      LOOP:  cpu time    0.0880: real time    0.1179

 Broyden mixing:
  rms(total) = 0.15422E-02    rms(broyden)= 0.15414E-02
  rms(prec ) = 0.40672E-02
  weight for this iteration     100.00

 eigenvalues of (default mixing * dielectric matrix)
  average eigenvalue GAMMA=   2.4321
  3.6515  3.2200  1.4285  1.4285

 Free energy of the ion-electron system (eV)
  ---------------------------------------------------
  -Hartree energ DENC   =        -0.02289552
  -V(xc)+E(xc)   XCENC  =         0.00047324
  PAW double counting   =         0.00005429       -0.00005198
  entropy T*S    EENTRO =         0.00000000
  eigenvalues    EBANDS =        -0.01824953
  ---------------------------------------------------
  free energy    TOTEN  =        -0.04066950 eV

  energy without entropy =       -0.04066950


----------------------------------------- Iteration    3(   7)  ---------------------------------------


   POT+DIJ:  cpu time    0.0220: real time    0.0225
    HAMIL1:  cpu time    0.0130: real time    0.0361
    LRDIAG:  cpu time    0.0030: real time    0.0029
    LRDIIS:  cpu time    0.0280: real time    0.0325
    LRDIAG:  cpu time    0.0020: real time    0.0020
    MIXING:  cpu time    0.0010: real time    0.0006
    --------------------------------------------
      LOOP:  cpu time    0.0760: real time    0.1038

 Broyden mixing:
  rms(total) = 0.12393E-02    rms(broyden)= 0.12393E-02
  rms(prec ) = 0.23713E-02
  weight for this iteration     100.00

 eigenvalues of (default mixing * dielectric matrix)
  average eigenvalue GAMMA=   3.0844
  6.7901  3.4111  1.0381  1.5746  2.6083

 Free energy of the ion-electron system (eV)
  ---------------------------------------------------
  -Hartree energ DENC   =        -0.02264681
  -V(xc)+E(xc)   XCENC  =         0.00045601
  PAW double counting   =         0.00003863       -0.00003691
  entropy T*S    EENTRO =         0.00000000
  eigenvalues    EBANDS =        -0.01831082
  ---------------------------------------------------
  free energy    TOTEN  =        -0.04049991 eV

  energy without entropy =       -0.04049991


----------------------------------------- Iteration    3(   8)  ---------------------------------------


   POT+DIJ:  cpu time    0.0230: real time    0.0232
    HAMIL1:  cpu time    0.0170: real time    0.0396
    LRDIAG:  cpu time    0.0020: real time    0.0027
    LRDIIS:  cpu time    0.0250: real time    0.0302
    LRDIAG:  cpu time    0.0010: real time    0.0016
    MIXING:  cpu time    0.0010: real time    0.0006
    --------------------------------------------
      LOOP:  cpu time    0.0810: real time    0.1095

 Broyden mixing:
  rms(total) = 0.26595E-03    rms(broyden)= 0.26588E-03
  rms(prec ) = 0.40662E-03
  weight for this iteration     100.00

 eigenvalues of (default mixing * dielectric matrix)
  average eigenvalue GAMMA=   3.2561
  7.7526  1.0068  1.5773  3.5936  3.0168  2.5892

 Free energy of the ion-electron system (eV)
  ---------------------------------------------------
  -Hartree energ DENC   =        -0.02271776
  -V(xc)+E(xc)   XCENC  =         0.00041177
  PAW double counting   =         0.00006393       -0.00006107
  entropy T*S    EENTRO =         0.00000000
  eigenvalues    EBANDS =        -0.01828561
  ---------------------------------------------------
  free energy    TOTEN  =        -0.04058874 eV

  energy without entropy =       -0.04058874


------------------------ aborting loop because EDIFF is reached ----------------------------------------


 change of polarisation eV/A/(eV/A) component  3 :     0.000     0.000     0.075
 dielectric tensor                  component  3 :     0.000     0.000     1.211


--------------------------------------------------------------------------------------------------------


    FORLOC:  cpu time    0.0010: real time    0.0003
    FORNL :  cpu time    0.0400: real time    0.3840
    STRESS:  cpu time    0.1700: real time    1.4342
    OFIELD:  cpu time    0.0000: real time    0.0001
    FORLOC:  cpu time    0.0010: real time    0.0012
    FORNL :  cpu time    0.0440: real time    0.4031
    STRESS:  cpu time    0.1420: real time    1.3388
    OFIELD:  cpu time    0.0000: real time    0.0001
    FORNLD:  cpu time    0.1070: real time    1.3402

 PIEZOELECTRIC TENSOR FIELD DIRECTION 3  (e Angst)
 -----------------------------------------------------------------------------
     0.00001  0.00000  0.00000           ( -0.00000  0.00000  0.00000)
     0.00000 -0.00001 -0.00012           (  0.00000 -0.00000 -0.00000)
     0.00000 -0.00012  0.00010           (  0.00000 -0.00000 -0.00001)

 PIEZOELECTRIC TENSOR FIELD DIRECTION 3  (C/m^2)
 -----------------------------------------------------------------------------
     0.00000  0.00000  0.00000
     0.00000 -0.00000 -0.00003
     0.00000 -0.00003  0.00003


      POSITION         DIRECTION 3           BORN EFFECTIVE CHARGE    (rigid.aug.   ionic)
 -----------------------------------------------------------------------------------------
      0.00584      0.00308      1.69750     0.00001  0.00001  0.00425 ( -0.09739  4.00000)
      0.00581      1.43605      1.69750     0.00001 -0.00000  0.00426 ( -0.09739  4.00000)
 -----------------------------------------------------------------------------------------
    total drift (improves with k-points):   0.00002  0.00001  0.00851




--------------------------------------------------------------------------------------------------------




 MACROSCOPIC STATIC DIELECTRIC TENSOR (including local field effects in DFT)
 ------------------------------------------------------
           1.734563    -0.000556     0.000000
           0.000285     1.734559     0.000000
           0.000000     0.000000     1.211043
 ------------------------------------------------------



--------------------------------------------------------------------------------------------------------




--------------------------------------------------------------------------------------------------------




 MACROSCOPIC STATIC DIELECTRIC TENSOR (including local field effects in DFT)
 ------------------------------------------------------
           1.734563    -0.000556     0.000000
           0.000285     1.734559     0.000000
           0.000000     0.000000     1.211043
 ------------------------------------------------------


 PIEZOELECTRIC TENSOR  for field in x, y, z        (e  Angst)
          XX          YY          ZZ          XY          YZ          ZX
  --------------------------------------------------------------------------------
  x     1.29841    -1.29845    -0.00001    -0.02164     0.00000     0.00001
  y     0.00378    -0.00378     0.00001    -1.30553    -0.00000    -0.00001
  z     0.00001    -0.00001     0.00010     0.00000    -0.00012     0.00000

 PIEZOELECTRIC TENSOR  for field in x, y, z        (C/m^2)
          XX          YY          ZZ          XY          YZ          ZX
  --------------------------------------------------------------------------------
  x     0.32496    -0.32497    -0.00000    -0.00542     0.00000     0.00000
  y     0.00095    -0.00095     0.00000    -0.32674    -0.00000    -0.00000
  z     0.00000    -0.00000     0.00003     0.00000    -0.00003     0.00000
 
 BORN EFFECTIVE CHARGES (in e, cummulative output)
 -------------------------------------------------
 ion    1
    1    -0.02243     1.33934     0.00001
    2    -1.34659     0.00402    -0.00001
    3    -0.00000     0.00001    -0.00001
 ion    2
    1     0.02243    -1.33934    -0.00001
    2     1.34659    -0.00402     0.00001
    3     0.00000    -0.00001     0.00001


--------------------------------------------------------------------------------------------------------


     LOOP+:  cpu time    8.5227: real time   27.4338
    4ORBIT:  cpu time    0.0000: real time    0.0000

 total amount of memory used by VASP MPI-rank0    32837. kBytes
=======================================================================

   base      :      30000. kBytes
   nonlr-proj:        208. kBytes
   fftplans  :       1526. kBytes
   grid      :        907. kBytes
   one-center:          6. kBytes
   wavefun   :        190. kBytes
 
  
  
 General timing and accounting informations for this job:
 ========================================================
  
                  Total CPU time used (sec):        9.629
                            User time (sec):        8.570
                          System time (sec):        1.059
                         Elapsed time (sec):       29.780
  
                   Maximum memory used (kb):      298752.
                   Average memory used (kb):           0.
  
                          Minor page faults:        64716
                          Major page faults:            0
                 Voluntary context switches:        13258
