 vasp.5.4.4.18Apr17-6-g9f103f2a35 (build May 02 2017 19:20:32) complex          
  
 executed on    fermion-Intel-MKL date 2017.12.10  16:49:48
 running on    7 total cores
 distrk:  each k-point on    7 cores,    1 groups
 distr:  one band on NCORES_PER_BAND=   1 cores,    7 groups


--------------------------------------------------------------------------------------------------------


 INCAR:
 POTCAR:   PAW_PBE C 08Apr2002                    

 ----------------------------------------------------------------------------- 
|                                                                             |
|           W    W    AA    RRRRR   N    N  II  N    N   GGGG   !!!           |
|           W    W   A  A   R    R  NN   N  II  NN   N  G    G  !!!           |
|           W    W  A    A  R    R  N N  N  II  N N  N  G       !!!           |
|           W WW W  AAAAAA  RRRRR   N  N N  II  N  N N  G  GGG   !            |
|           WW  WW  A    A  R   R   N   NN  II  N   NN  G    G                |
|           W    W  A    A  R    R  N    N  II  N    N   GGGG   !!!           |
|                                                                             |
|      For optimal performance we recommend to set                            |
|        NCORE= 4 - approx SQRT( number of cores)                             |
|      NCORE specifies how many cores store one orbital (NPAR=cpu/NCORE).     |
|      This setting can  greatly improve the performance of VASP for DFT.     |
|      The default,   NCORE=1            might be grossly inefficient         |
|      on modern multi-core architectures or massively parallel machines.     |
|      Do your own testing !!!!                                               |
|      Unfortunately you need to use the default for GW and RPA calculations. |
|      (for HF NCORE is supported but not extensively tested yet)             |
|                                                                             |
 ----------------------------------------------------------------------------- 

 POTCAR:   PAW_PBE C 08Apr2002                    
   VRHFIN =C: s2p2                                                              
   LEXCH  = PE                                                                  
   EATOM  =   147.1560 eV,   10.8157 Ry                                         
                                                                                
   TITEL  = PAW_PBE C 08Apr2002                                                 
   LULTRA =        F    use ultrasoft PP ?                                      
   IUNSCR =        0    unscreen: 0-lin 1-nonlin 2-no                           
   RPACOR =     .000    partial core radius                                     
   POMASS =   12.011; ZVAL   =    4.000    mass and valenz                      
   RCORE  =    1.500    outmost cutoff radius                                   
   RWIGS  =    1.630; RWIGS  =     .863    wigner-seitz radius (au A)           
   ENMAX  =  400.000; ENMIN  =  300.000 eV                                      
   ICORE  =        2    local potential                                         
   LCOR   =        T    correct aug charges                                     
   LPAW   =        T    paw PP                                                  
   EAUG   =  644.873                                                            
   DEXC   =     .000                                                            
   RMAX   =    2.266    core radius for proj-oper                               
   RAUG   =    1.300    factor for augmentation sphere                          
   RDEP   =    1.501    radius for radial grids                                 
   RDEPT  =    1.300    core radius for aug-charge                              
   QCUT   =   -5.516; QGAM   =   11.032    optimization parameters              
                                                                                
   Description                                                                  
     l     E      TYP  RCUT    TYP  RCUT                                        
     0   .000     23  1.200                                                     
     0   .000     23  1.200                                                     
     1   .000     23  1.500                                                     
     1  2.500     23  1.500                                                     
     2   .000      7  1.500                                                     
  local pseudopotential read in
  atomic valenz-charges read in
  non local Contribution for L=           0  read in
    real space projection operators read in
  non local Contribution for L=           0  read in
    real space projection operators read in
  non local Contribution for L=           1  read in
    real space projection operators read in
  non local Contribution for L=           1  read in
    real space projection operators read in
    PAW grid and wavefunctions read in
 
   number of l-projection  operators is LMAX  =           4
   number of lm-projection operators is LMMAX =           8
 

 ----------------------------------------------------------------------------- 
|                                                                             |
|  ADVICE TO THIS USER RUNNING 'VASP/VAMP'   (HEAR YOUR MASTER'S VOICE ...):  |
|                                                                             |
|      You have a (more or less) 'small supercell' and for smaller cells      |
|      it is recommended  to use the reciprocal-space projection scheme!      |
|      The real space optimization is not  efficient for small cells and it   |
|      is also less accurate ...                                              |
|      Therefore set LREAL=.FALSE. in the  INCAR file                         |
|                                                                             |
 ----------------------------------------------------------------------------- 

 Optimization of the real space projectors (new method)

 maximal supplied QI-value         = 25.13
 optimisation between [QCUT,QGAM] = [ 10.05, 20.36] = [ 28.30,116.06] Ry 
 Optimized for a Real-space Cutoff    1.30 Angstroem

   l    n(q)    QCUT    max X(q) W(low)/X(q) W(high)/X(q)  e(spline) 
   0      8    10.053     5.582    0.43E-04    0.44E-04    0.61E-07
   0      8    10.053    69.432    0.49E-03    0.71E-03    0.18E-06
   1      7    10.053     2.780    0.78E-04    0.13E-03    0.11E-06
   1      7    10.053     4.549    0.23E-03    0.19E-03    0.20E-06
 PAW_PBE C 08Apr2002                    :
 energy of atom  1       EATOM= -147.1560
 kinetic energy error for atom=    0.0288 (will be added to EATOM!!)
 
 
 POSCAR: OUTCAR.0004.-1.out 1.0e-02              
  positions in cartesian coordinates
  No initial velocities read in
 exchange correlation table for  LEXCH =        8
   RHO(1)=    0.500       N(1)  =     2000
   RHO(2)=  100.500       N(2)  =     4000
 


--------------------------------------------------------------------------------------------------------


 ion  position               nearest neighbor table
   1  0.001  0.999  0.142-   2 1.43   2 1.43   2 1.43
   2  0.334  0.666  0.142-   1 1.43   1 1.43   1 1.43
 

IMPORTANT INFORMATION: All symmetrisations will be switched off!
NOSYMM: (Re-)initialisation of all symmetry stuff for point group C_1.

 
 
 KPOINTS: K-Points                                

Automatic generation of k-mesh.
Space group operators:
 irot       det(A)        alpha          n_x          n_y          n_z        tau_x        tau_y        tau_z
    1     1.000000     0.000000     1.000000     0.000000     0.000000     0.000000     0.000000     0.000000
 
 Subroutine IBZKPT returns following result:
 ===========================================
 
 Found      5 irreducible k-points:
 
 Following reciprocal coordinates:
            Coordinates               Weight
  0.000000  0.000000  0.000000      1.000000
  0.333333  0.000000  0.000000      2.000000
  0.000000  0.333333  0.000000      2.000000
  0.333333  0.333333  0.000000      2.000000
 -0.333333  0.333333  0.000000      2.000000
 
 Following cartesian coordinates:
            Coordinates               Weight
  0.000000  0.000000  0.000000      1.000000
  0.134303  0.077540 -0.000000      2.000000
  0.000000  0.155080 -0.000000      2.000000
  0.134303  0.232620 -0.000000      2.000000
 -0.134303  0.077540  0.000000      2.000000
 
 
 Subroutine IBZKPT_HF returns following result:
 ==============================================
 
 Found      9 k-points in 1st BZ
 the following      9 k-points will be used (e.g. in the exchange kernel)
 Following reciprocal coordinates:   # in IRBZ
  0.000000  0.000000  0.000000    0.11111111   1 t-inv F
  0.333333  0.000000  0.000000    0.11111111   2 t-inv F
  0.000000  0.333333  0.000000    0.11111111   3 t-inv F
  0.333333  0.333333  0.000000    0.11111111   4 t-inv F
 -0.333333  0.333333  0.000000    0.11111111   5 t-inv F
 -0.333333 -0.000000 -0.000000    0.11111111   2 t-inv T
  0.000000 -0.333333 -0.000000    0.11111111   3 t-inv T
 -0.333333 -0.333333 -0.000000    0.11111111   4 t-inv T
  0.333333 -0.333333  0.000000    0.11111111   5 t-inv T


--------------------------------------------------------------------------------------------------------




 Dimension of arrays:
   k-points           NKPTS =      5   k-points in BZ     NKDIM =      5   number of bands    NBANDS=     14
   number of dos      NEDOS =    301   number of ions     NIONS =      2
   non local maximal  LDIM  =      4   non local SUM 2l+1 LMDIM =      8
   total plane-waves  NPLWV =   8640
   max r-space proj   IRMAX =   1295   max aug-charges    IRDMAX=  12939
   dimension x,y,z NGX =    12 NGY =   12 NGZ =   60
   dimension x,y,z NGXF=    24 NGYF=   24 NGZF=  120
   support grid    NGXF=    48 NGYF=   48 NGZF=  240
   ions per type =               2
   NGX,Y,Z   is equivalent  to a cutoff of   8.04,  8.04,  8.31 a.u.
   NGXF,Y,Z  is equivalent  to a cutoff of  16.08, 16.08, 16.62 a.u.

 SYSTEM =  raman                                   
 POSCAR =  OUTCAR.0004.-1.out 1.0e-02              

 Startparameter for this run:
   NWRITE =      3    write-flag & timer
   PREC   = n         normal or accurate (medium, high low for compatibility)
   ISTART =      0    job   : 0-new  1-cont  2-samecut
   ICHARG =      2    charge: 1-file 2-atom 10-const
   ISPIN  =      1    spin polarized calculation?
   LNONCOLLINEAR =      F non collinear calculations
   LSORBIT =      F    spin-orbit coupling
   INIWAV =      1    electr: 0-lowe 1-rand  2-diag
   LASPH  =      F    aspherical Exc in radial PAW
   METAGGA=      F    non-selfconsistent MetaGGA calc.

 Electronic Relaxation 1
   ENCUT  =  400.0 eV  29.40 Ry    5.42 a.u.   4.05  4.05 19.57*2*pi/ulx,y,z
   ENINI  =  400.0     initial cutoff
   ENAUG  =  644.9 eV  augmentation charge cutoff
   NELM   =     60;   NELMIN=  4; NELMDL= -5     # of ELM steps 
   EDIFF  = 0.1E-03   stopping-criterion for ELM
   LREAL  =      T    real-space projection
   NLSPLINE    = F    spline interpolate recip. space projectors
   LCOMPAT=      F    compatible to vasp.4.4
   GGA_COMPAT  = T    GGA compatible to vasp.4.4-vasp.4.6
   LMAXPAW     = -100 max onsite density
   LMAXMIX     =    2 max onsite mixed and CHGCAR
   VOSKOWN=      0    Vosko Wilk Nusair interpolation
   ROPT   =   -0.00050
 Ionic relaxation
   EDIFFG = 0.1E-02   stopping-criterion for IOM
   NSW    =      0    number of steps for IOM
   NBLOCK =      1;   KBLOCK =      1    inner block; outer block 
   IBRION =     -1    ionic relax: 0-MD 1-quasi-New 2-CG
   NFREE  =      0    steps in history (QN), initial steepest desc. (CG)
   ISIF   =      2    stress and relaxation
   IWAVPR =     10    prediction:  0-non 1-charg 2-wave 3-comb
   ISYM   =      0    0-nonsym 1-usesym 2-fastsym
   LCORR  =      T    Harris-Foulkes like correction to forces

   POTIM  = 0.5000    time-step for ionic-motion
   TEIN   =    0.0    initial temperature
   TEBEG  =    0.0;   TEEND  =   0.0 temperature during run
   SMASS  =  -3.00    Nose mass-parameter (am)
   estimated Nose-frequenzy (Omega)   =  0.10E-29 period in steps =****** mass=  -0.141E-27a.u.
   SCALEE = 1.0000    scale energy and forces
   NPACO  =    256;   APACO  = 16.0  distance and # of slots for P.C.
   PSTRESS=    0.0 pullay stress

  Mass of Ions in am
   POMASS =  12.01
  Ionic Valenz
   ZVAL   =   4.00
  Atomic Wigner-Seitz radii
   RWIGS  =  -1.00
  virtual crystal weights 
   VCA    =   1.00
   NELECT =       8.0000    total number of electrons
   NUPDOWN=      -1.0000    fix difference up-down

 DOS related values:
   EMIN   =  10.00;   EMAX   =-10.00  energy-range for DOS
   EFERMI =   0.00
   ISMEAR =     1;   SIGMA  =   0.20  broadening in eV -4-tet -1-fermi 0-gaus

 Electronic relaxation 2 (details)
   IALGO  =     38    algorithm
   LDIAG  =      T    sub-space diagonalisation (order eigenvalues)
   LSUBROT=      F    optimize rotation matrix (better conditioning)
   TURBO    =      0    0=normal 1=particle mesh
   IRESTART =      0    0=no restart 2=restart with 2 vectors
   NREBOOT  =      0    no. of reboots
   NMIN     =      0    reboot dimension
   EREF     =   0.00    reference energy to select bands
   IMIX   =      4    mixing-type and parameters
     AMIX     =   0.40;   BMIX     =  1.00
     AMIX_MAG =   1.60;   BMIX_MAG =  1.00
     AMIN     =   0.10
     WC   =   100.;   INIMIX=   1;  MIXPRE=   1;  MAXMIX= -45

 Intra band minimization:
   WEIMIN = 0.0000     energy-eigenvalue tresh-hold
   EBREAK =  0.18E-05  absolut break condition
   DEPER  =   0.30     relativ break condition  

   TIME   =   0.40     timestep for ELM

  volume/ion in A,a.u.               =      32.01       216.01
  Fermi-wavevector in a.u.,A,eV,Ry     =   0.818475  1.546694  9.114571  0.669902
  Thomas-Fermi vector in A             =   1.929109
 
 Write flags
   LWAVE        =      F    write WAVECAR
   LDOWNSAMPLE  =      F    k-point downsampling of WAVECAR
   LCHARG       =      F    write CHGCAR
   LVTOT        =      F    write LOCPOT, total local potential
   LVHAR        =      F    write LOCPOT, Hartree potential only
   LELF         =      F    write electronic localiz. function (ELF)
   LORBIT       =      0    0 simple, 1 ext, 2 COOP (PROOUT), +10 PAW based schemes


 Dipole corrections
   LMONO  =      F    monopole corrections only (constant potential shift)
   LDIPOL =      F    correct potential (dipole corrections)
   IDIPOL =      0    1-x, 2-y, 3-z, 4-all directions 
   EPSILON=  1.0000000 bulk dielectric constant

 Exchange correlation treatment:
   GGA     =    --    GGA type
   LEXCH   =     8    internal setting for exchange type
   VOSKOWN=      0    Vosko Wilk Nusair interpolation
   LHFCALC =     F    Hartree Fock is set to
   LHFONE  =     F    Hartree Fock one center treatment
   AEXX    =    0.0000 exact exchange contribution

 Linear response parameters
   LEPSILON=     T    determine dielectric tensor
   LRPA    =     F    only Hartree local field effects (RPA)
   LNABLA  =     F    use nabla operator in PAW spheres
   LVEL    =     F    velocity operator in full k-point grid
   LINTERFAST=   F  fast interpolation
   KINTER  =     0    interpolate to denser k-point grid
   CSHIFT  =0.1000    complex shift for real part using Kramers Kronig
   OMEGAMAX=  -1.0    maximum frequency
   DEG_THRESHOLD= 0.2000000E-02 threshold for treating states as degnerate
   RTIME   =   -0.100 relaxation time in fs
  (WPLASMAI=    0.000 imaginary part of plasma frequency in eV, 0.658/RTIME)
   DFIELD  = 0.0000000 0.0000000 0.0000000 field for delta impulse in time
 
 Orbital magnetization related:
   ORBITALMAG=     F  switch on orbital magnetization
   LCHIMAG   =     F  perturbation theory with respect to B field
   DQ        =  0.001000  dq finite difference perturbation B field
   LLRAUG    =     F  two centre corrections for induced B field



--------------------------------------------------------------------------------------------------------


 Static calculation
 charge density and potential will be updated during run
 non-spin polarized calculation
 Variant of blocked Davidson
 Davidson routine will perform the subspace rotation
 perform sub-space diagonalisation
    after iterative eigenvector-optimisation
 modified Broyden-mixing scheme, WC =      100.0
 initial mixing is a Kerker type mixing with AMIX =  0.4000 and BMIX =      1.0000
 Hartree-type preconditioning will be used
 using additional bands           10
 real space projection scheme for non local part
 calculate Harris-corrections to forces 
   (improved forces if not selfconsistent)
 use gradient corrections 
 use of overlap-Matrix (Vanderbilt PP)
 Methfessel and Paxton  Order N= 1 SIGMA  =   0.20


--------------------------------------------------------------------------------------------------------


  energy-cutoff  :      400.00
  volume of cell :       64.02
      direct lattice vectors                 reciprocal lattice vectors
     2.481948769  0.000000000  0.000000000     0.402909203  0.232619737 -0.000000000
    -1.240974385  2.149430685  0.000000000     0.000000000  0.465239473 -0.000000000
     0.000000000  0.000000000 12.000000000     0.000000000  0.000000000  0.083333333

  length of vectors
     2.481948769  2.481948769 12.000000000     0.465239473  0.465239473  0.083333333


 
 k-points in units of 2pi/SCALE and weight: K-Points                                
   0.00000000  0.00000000  0.00000000       0.111
   0.13430307  0.07753991 -0.00000000       0.222
   0.00000000  0.15507982 -0.00000000       0.222
   0.13430307  0.23261974 -0.00000000       0.222
  -0.13430307  0.07753991  0.00000000       0.222
 
 k-points in reciprocal lattice and weights: K-Points                                
   0.00000000  0.00000000  0.00000000       0.111
   0.33333333  0.00000000  0.00000000       0.222
   0.00000000  0.33333333  0.00000000       0.222
   0.33333333  0.33333333  0.00000000       0.222
  -0.33333333  0.33333333  0.00000000       0.222
 
 position of ions in fractional coordinates (direct lattice) 
   0.00105576  0.99946164  0.14218264
   0.33438576  0.66613167  0.14218271
 
 position of ions in cartesian coordinates  (Angst):
  -1.23768597  2.14827353  1.70619165
   0.00327599  1.43180385  1.70619248
 


--------------------------------------------------------------------------------------------------------


 k-point  1 :   0.0000 0.0000 0.0000  plane waves:    1125
 k-point  2 :   0.3333 0.0000 0.0000  plane waves:    1167
 k-point  3 :   0.0000 0.3333 0.0000  plane waves:    1167
 k-point  4 :   0.3333 0.3333 0.0000  plane waves:    1146
 k-point  5 :  -0.3333 0.3333 0.0000  plane waves:    1167

 maximum and minimum number of plane-waves per node :      1167     1125

 maximum number of plane-waves:      1167
 maximum index in each direction: 
   IXMAX=    4   IYMAX=    4   IZMAX=   19
   IXMIN=   -4   IYMIN=   -4   IZMIN=  -19


 serial   3D FFT for wavefunctions
 parallel 3D FFT for charge:
    minimum data exchange during FFTs selected (reduces bandwidth)


 total amount of memory used by VASP MPI-rank0    32837. kBytes
=======================================================================

   base      :      30000. kBytes
   nonlr-proj:        208. kBytes
   fftplans  :       1526. kBytes
   grid      :        907. kBytes
   one-center:          6. kBytes
   wavefun   :        190. kBytes
 
     INWAV:  cpu time    0.0000: real time    0.0000
 Broyden mixing: mesh for mixing (old mesh)
   NGX =  9   NGY =  9   NGZ = 39
  (NGX  = 24   NGY  = 24   NGZ  =120)
  gives a total of   3159 points

 initial charge density was supplied:
 charge density of overlapping atoms calculated
 number of electron       8.0000000 magnetization 
 keeping initial charge density in first step


--------------------------------------------------------------------------------------------------------


 Maximum index for non-local projection operator         1187
 Maximum index for augmentation-charges         1872 (set IRDMAX)


--------------------------------------------------------------------------------------------------------


 First call to EWALD:  gamma=   0.443
 Maximum number of real-space cells 5x 5x 1
 Maximum number of reciprocal cells 2x 2x 7

    FEWALD:  cpu time    0.0010: real time    0.0014


----------------------------------------- Iteration    1(   1)  ---------------------------------------


    POTLOK:  cpu time    0.0050: real time    0.0049
    SETDIJ:  cpu time    0.0030: real time    0.0028
     EDDAV:  cpu time    0.0900: real time    0.2519
       DOS:  cpu time    0.0010: real time    0.0003
    --------------------------------------------
      LOOP:  cpu time    0.1010: real time    0.2626

 eigenvalue-minimisations  :   140
 total energy-change (2. order) : 0.1326365E+02  (-0.3579545E+03)
 number of electron       8.0000000 magnetization 
 augmentation part        8.0000000 magnetization 

 Free energy of the ion-electron system (eV)
  ---------------------------------------------------
  alpha Z        PSCENC =         5.09113229
  Ewald energy   TEWEN  =       551.13459490
  -Hartree energ DENC   =      -777.05864006
  -exchange      EXHF   =         0.00000000
  -V(xc)+E(xc)   XCENC  =        27.46714392
  PAW double counting   =        75.66288619      -77.96384553
  entropy T*S    EENTRO =        -0.01153676
  eigenvalues    EBANDS =       -85.31253327
  atomic energy  EATOM  =       294.25444774
  Solvation  Ediel_sol  =         0.00000000
  ---------------------------------------------------
  free energy    TOTEN  =        13.26364944 eV

  energy without entropy =       13.27518619  energy(sigma->0) =       13.26749502


--------------------------------------------------------------------------------------------------------




 average (electrostatic) potential at core
  the test charge radii are     0.6991
  (the norm of the test charge is              1.0000)
       1 -62.8965       2 -62.8965
 
 
 
 E-fermi :   2.6013     XC(G=0):  -3.9367     alpha+bet : -3.1363


 k-point     1 :       0.0000    0.0000    0.0000
  band No.  band energies     occupation 
      1     -24.3065      2.00000
      2     -11.2403      2.00000
      3      -3.8903      2.00000
      4       1.2803      2.00000
      5       2.4992      1.75163
      6       2.9646     -0.02759
      7       3.8739     -0.00000
      8       6.9290     -0.00000
      9       8.2277      0.00000
     10      11.0652      0.00000
     11      13.9954      0.00000
     12      15.7785      0.00000
     13      20.8013      0.00000
     14      21.5797      0.00000

 k-point     2 :       0.3333    0.0000    0.0000
  band No.  band energies     occupation 
      1     -21.8319      2.00000
      2     -11.5609      2.00000
      3      -7.4363      2.00000
      4      -5.4805      2.00000
      5       5.1503     -0.00000
      6       6.6481     -0.00000
      7       7.5072     -0.00000
      8      10.0281      0.00000
      9      11.7368      0.00000
     10      13.7844      0.00000
     11      16.8784      0.00000
     12      17.9103      0.00000
     13      20.7291      0.00000
     14      25.0434      0.00000

 k-point     3 :       0.0000    0.3333    0.0000
  band No.  band energies     occupation 
      1     -21.8339      2.00000
      2     -10.3881      2.00000
      3      -7.6543      2.00000
      4      -3.2978      2.00000
      5       5.2258     -0.00000
      6       6.4837     -0.00000
      7       7.4897     -0.00000
      8       9.9954      0.00000
      9      11.7540      0.00000
     10      13.4117      0.00000
     11      16.3597      0.00000
     12      18.4029      0.00000
     13      18.9542      0.00000
     14      20.2672      0.00000

 k-point     4 :       0.3333    0.3333    0.0000
  band No.  band energies     occupation 
      1     -16.7430      2.00000
      2     -14.8389      2.00000
      3     -13.0169      2.00000
      4       0.0560      2.00000
      5       2.9972     -0.01707
      6      12.2807      0.00000
      7      13.1461      0.00000
      8      13.5702      0.00000
      9      14.2714      0.00000
     10      14.8691      0.00000
     11      16.1996      0.00000
     12      17.6155      0.00000
     13      19.4784      0.00000
     14      21.2983      0.00000

 k-point     5 :      -0.3333    0.3333    0.0000
  band No.  band energies     occupation 
      1     -21.6711      2.00000
      2     -12.5319      2.00000
      3      -7.1855      2.00000
      4       2.5829      1.15505
      5       5.2814     -0.00000
      6       7.1582     -0.00000
      7       7.8930     -0.00000
      8       9.4540      0.00000
      9      12.0680      0.00000
     10      15.3636      0.00000
     11      17.8642      0.00000
     12      19.4794      0.00000
     13      21.9935      0.00000
     14      22.1867      0.00000


--------------------------------------------------------------------------------------------------------


 soft charge-density along one line, spin component           1
         0         1         2         3         4         5         6         7         8         9
 total charge-density along one line
 
 pseudopotential strength for first ion, spin component:           1
 10.479   0.027  -0.000   0.000   0.000   0.000  -0.000  -0.000
  0.027  -0.001   0.000  -0.000  -0.000   0.000  -0.000  -0.000
 -0.000   0.000  -4.631   0.000   0.000  -0.003   0.000   0.000
  0.000  -0.000   0.000  -4.598  -0.000   0.000   0.002  -0.000
  0.000  -0.000   0.000  -0.000  -4.631   0.000  -0.000  -0.003
  0.000   0.000  -0.003   0.000   0.000  -0.776   0.000   0.000
 -0.000  -0.000   0.000   0.002  -0.000   0.000  -0.775  -0.000
 -0.000  -0.000   0.000  -0.000  -0.003   0.000  -0.000  -0.776
 total augmentation occupancy for first ion, spin component:           1
  2.000   0.000   0.000   0.000   0.000   0.000   0.000   0.000
  0.000   0.000   0.000   0.000   0.000   0.000   0.000   0.000
  0.000   0.000   0.667   0.000   0.000   0.000   0.000   0.000
  0.000   0.000   0.000   0.667   0.000   0.000   0.000   0.000
  0.000   0.000   0.000   0.000   0.667   0.000   0.000   0.000
  0.000   0.000   0.000   0.000   0.000   0.000   0.000   0.000
  0.000   0.000   0.000   0.000   0.000   0.000   0.000   0.000
  0.000   0.000   0.000   0.000   0.000   0.000   0.000   0.000


----------------------------------------- Iteration    1(   2)  ---------------------------------------


     EDDAV:  cpu time    0.3719: real time    0.5332
       DOS:  cpu time    0.0010: real time    0.0003
    --------------------------------------------
      LOOP:  cpu time    0.3729: real time    0.5353

 eigenvalue-minimisations  :   224
 total energy-change (2. order) :-0.3203729E+02  (-0.3003800E+02)
 number of electron       8.0000000 magnetization 
 augmentation part        8.0000000 magnetization 

 Free energy of the ion-electron system (eV)
  ---------------------------------------------------
  alpha Z        PSCENC =         5.09113229
  Ewald energy   TEWEN  =       551.13459490
  -Hartree energ DENC   =      -777.05864006
  -exchange      EXHF   =         0.00000000
  -V(xc)+E(xc)   XCENC  =        27.46714392
  PAW double counting   =        75.66288619      -77.96384553
  entropy T*S    EENTRO =        -0.02276663
  eigenvalues    EBANDS =      -117.33858939
  atomic energy  EATOM  =       294.25444774
  Solvation  Ediel_sol  =         0.00000000
  ---------------------------------------------------
  free energy    TOTEN  =       -18.77363655 eV

  energy without entropy =      -18.75086992  energy(sigma->0) =      -18.76604767


--------------------------------------------------------------------------------------------------------




 average (electrostatic) potential at core
  the test charge radii are     0.6991
  (the norm of the test charge is              1.0000)
       1 -62.8965       2 -62.8965
 
 
 
 E-fermi :  -4.9236     XC(G=0):  -3.9367     alpha+bet : -3.1363


 k-point     1 :       0.0000    0.0000    0.0000
  band No.  band energies     occupation 
      1     -25.0215      2.00000
      2     -12.1679      2.00000
      3      -9.4489      2.00000
      4      -9.2776      2.00000
      5       1.2680      0.00000
      6       2.4734      0.00000
      7       2.5621      0.00000
      8       2.6010      0.00000
      9       3.6386      0.00000
     10       5.8903      0.00000
     11       6.4835      0.00000
     12       6.5335      0.00000
     13       7.7095      0.00000
     14      12.5880      0.00000

 k-point     2 :       0.3333    0.0000    0.0000
  band No.  band energies     occupation 
      1     -22.5548      2.00000
      2     -15.5820      2.00000
      3     -11.9914      2.00000
      4      -9.3269      2.00000
      5      -0.1743     -0.00000
      6       2.0350      0.00000
      7       4.7286      0.00000
      8       6.0471      0.00000
      9       7.1862      0.00000
     10       9.7212      0.00000
     11      10.0392      0.00000
     12      10.5998      0.00000
     13      11.1639      0.00000
     14      13.8362      0.00000

 k-point     3 :       0.0000    0.3333    0.0000
  band No.  band energies     occupation 
      1     -22.5551      2.00000
      2     -15.5717      2.00000
      3     -11.9883      2.00000
      4      -9.3277      2.00000
      5      -0.1520     -0.00000
      6       2.0647      0.00000
      7       4.7293      0.00000
      8       6.0434      0.00000
      9       7.1873      0.00000
     10       9.7257      0.00000
     11       9.8989      0.00000
     12      10.5700      0.00000
     13      11.1813      0.00000
     14      13.7930      0.00000

 k-point     4 :       0.3333    0.3333    0.0000
  band No.  band energies     occupation 
      1     -18.4589      2.00000
      2     -18.4311      2.00000
      3     -16.2965      2.00000
      4      -4.9591      1.29522
      5      -4.8881      0.70478
      6       7.3183      0.00000
      7       8.3187      0.00000
      8       9.4353      0.00000
      9      10.3544      0.00000
     10      12.6093      0.00000
     11      12.9882      0.00000
     12      13.3692      0.00000
     13      13.4541      0.00000
     14      14.3374      0.00000

 k-point     5 :      -0.3333    0.3333    0.0000
  band No.  band energies     occupation 
      1     -22.5406      2.00000
      2     -15.5391      2.00000
      3     -11.6812      2.00000
      4      -9.2745      2.00000
      5       0.2040     -0.00000
      6       2.7463      0.00000
      7       4.7479      0.00000
      8       6.1275      0.00000
      9       7.2189      0.00000
     10       9.8573      0.00000
     11      11.2677      0.00000
     12      14.0778      0.00000
     13      15.0607      0.00000
     14      16.7880      0.00000


--------------------------------------------------------------------------------------------------------


 soft charge-density along one line, spin component           1
         0         1         2         3         4         5         6         7         8         9
 total charge-density along one line
 
 pseudopotential strength for first ion, spin component:           1
 10.479   0.027  -0.000   0.000   0.000   0.000  -0.000  -0.000
  0.027  -0.001   0.000  -0.000  -0.000   0.000  -0.000  -0.000
 -0.000   0.000  -4.631   0.000   0.000  -0.003   0.000   0.000
  0.000  -0.000   0.000  -4.598  -0.000   0.000   0.002  -0.000
  0.000  -0.000   0.000  -0.000  -4.631   0.000  -0.000  -0.003
  0.000   0.000  -0.003   0.000   0.000  -0.776   0.000   0.000
 -0.000  -0.000   0.000   0.002  -0.000   0.000  -0.775  -0.000
 -0.000  -0.000   0.000  -0.000  -0.003   0.000  -0.000  -0.776
 total augmentation occupancy for first ion, spin component:           1
  2.000   0.000   0.000   0.000   0.000   0.000   0.000   0.000
  0.000   0.000   0.000   0.000   0.000   0.000   0.000   0.000
  0.000   0.000   0.667   0.000   0.000   0.000   0.000   0.000
  0.000   0.000   0.000   0.667   0.000   0.000   0.000   0.000
  0.000   0.000   0.000   0.000   0.667   0.000   0.000   0.000
  0.000   0.000   0.000   0.000   0.000   0.000   0.000   0.000
  0.000   0.000   0.000   0.000   0.000   0.000   0.000   0.000
  0.000   0.000   0.000   0.000   0.000   0.000   0.000   0.000


----------------------------------------- Iteration    1(   3)  ---------------------------------------


     EDDAV:  cpu time    0.1470: real time    0.3026
       DOS:  cpu time    0.0010: real time    0.0002
    --------------------------------------------
      LOOP:  cpu time    0.1480: real time    0.3049

 eigenvalue-minimisations  :   182
 total energy-change (2. order) :-0.3734212E+00  (-0.3711288E+00)
 number of electron       8.0000000 magnetization 
 augmentation part        8.0000000 magnetization 

 Free energy of the ion-electron system (eV)
  ---------------------------------------------------
  alpha Z        PSCENC =         5.09113229
  Ewald energy   TEWEN  =       551.13459490
  -Hartree energ DENC   =      -777.05864006
  -exchange      EXHF   =         0.00000000
  -V(xc)+E(xc)   XCENC  =        27.46714392
  PAW double counting   =        75.66288619      -77.96384553
  entropy T*S    EENTRO =        -0.02507506
  eigenvalues    EBANDS =      -117.70970216
  atomic energy  EATOM  =       294.25444774
  Solvation  Ediel_sol  =         0.00000000
  ---------------------------------------------------
  free energy    TOTEN  =       -19.14705775 eV

  energy without entropy =      -19.12198269  energy(sigma->0) =      -19.13869940


--------------------------------------------------------------------------------------------------------




 average (electrostatic) potential at core
  the test charge radii are     0.6991
  (the norm of the test charge is              1.0000)
       1 -62.8965       2 -62.8965
 
 
 
 E-fermi :  -4.9992     XC(G=0):  -3.9367     alpha+bet : -3.1363


 k-point     1 :       0.0000    0.0000    0.0000
  band No.  band energies     occupation 
      1     -25.0240      2.00000
      2     -12.1735      2.00000
      3      -9.4708      2.00000
      4      -9.4692      2.00000
      5       1.2661      0.00000
      6       2.3018      0.00000
      7       2.3023      0.00000
      8       2.5879      0.00000
      9       3.6367      0.00000
     10       5.5868      0.00000
     11       6.3323      0.00000
     12       6.4850      0.00000
     13       7.7014      0.00000
     14      12.5212      0.00000

 k-point     2 :       0.3333    0.0000    0.0000
  band No.  band energies     occupation 
      1     -22.5561      2.00000
      2     -15.5969      2.00000
      3     -12.0158      2.00000
      4      -9.3351      2.00000
      5      -0.2587     -0.00000
      6       1.9554      0.00000
      7       4.7244      0.00000
      8       6.0321      0.00000
      9       7.1837      0.00000
     10       9.7030      0.00000
     11       9.7609      0.00000
     12      10.4115      0.00000
     13      11.1442      0.00000
     14      13.7349      0.00000

 k-point     3 :       0.0000    0.3333    0.0000
  band No.  band energies     occupation 
      1     -22.5561      2.00000
      2     -15.5969      2.00000
      3     -12.0157      2.00000
      4      -9.3351      2.00000
      5      -0.2585     -0.00000
      6       1.9563      0.00000
      7       4.7244      0.00000
      8       6.0321      0.00000
      9       7.1837      0.00000
     10       9.7032      0.00000
     11       9.7577      0.00000
     12      10.4116      0.00000
     13      11.1449      0.00000
     14      13.7349      0.00000

 k-point     4 :       0.3333    0.3333    0.0000
  band No.  band energies     occupation 
      1     -18.4712      2.00000
      2     -18.4710      2.00000
      3     -16.3256      2.00000
      4      -4.9993      1.00104
      5      -4.9991      0.99896
      6       7.2128      0.00000
      7       7.9325      0.00000
      8       7.9547      0.00000
      9       9.8782      0.00000
     10      12.4769      0.00000
     11      12.5348      0.00000
     12      13.1470      0.00000
     13      13.1765      0.00000
     14      13.6539      0.00000

 k-point     5 :      -0.3333    0.3333    0.0000
  band No.  band energies     occupation 
      1     -22.5561      2.00000
      2     -15.5974      2.00000
      3     -12.0150      2.00000
      4      -9.3350      2.00000
      5      -0.2590     -0.00000
      6       1.9553      0.00000
      7       4.7244      0.00000
      8       6.0322      0.00000
      9       7.1838      0.00000
     10       9.7034      0.00000
     11       9.8451      0.00000
     12      10.4352      0.00000
     13      11.1460      0.00000
     14      13.7560      0.00000


--------------------------------------------------------------------------------------------------------


 soft charge-density along one line, spin component           1
         0         1         2         3         4         5         6         7         8         9
 total charge-density along one line
 
 pseudopotential strength for first ion, spin component:           1
 10.479   0.027  -0.000   0.000   0.000   0.000  -0.000  -0.000
  0.027  -0.001   0.000  -0.000  -0.000   0.000  -0.000  -0.000
 -0.000   0.000  -4.631   0.000   0.000  -0.003   0.000   0.000
  0.000  -0.000   0.000  -4.598  -0.000   0.000   0.002  -0.000
  0.000  -0.000   0.000  -0.000  -4.631   0.000  -0.000  -0.003
  0.000   0.000  -0.003   0.000   0.000  -0.776   0.000   0.000
 -0.000  -0.000   0.000   0.002  -0.000   0.000  -0.775  -0.000
 -0.000  -0.000   0.000  -0.000  -0.003   0.000  -0.000  -0.776
 total augmentation occupancy for first ion, spin component:           1
  2.000   0.000   0.000   0.000   0.000   0.000   0.000   0.000
  0.000   0.000   0.000   0.000   0.000   0.000   0.000   0.000
  0.000   0.000   0.667   0.000   0.000   0.000   0.000   0.000
  0.000   0.000   0.000   0.667   0.000   0.000   0.000   0.000
  0.000   0.000   0.000   0.000   0.667   0.000   0.000   0.000
  0.000   0.000   0.000   0.000   0.000   0.000   0.000   0.000
  0.000   0.000   0.000   0.000   0.000   0.000   0.000   0.000
  0.000   0.000   0.000   0.000   0.000   0.000   0.000   0.000


----------------------------------------- Iteration    1(   4)  ---------------------------------------


     EDDAV:  cpu time    0.2240: real time    0.3888
       DOS:  cpu time    0.0010: real time    0.0011
    --------------------------------------------
      LOOP:  cpu time    0.2250: real time    0.3921

 eigenvalue-minimisations  :   168
 total energy-change (2. order) :-0.4215365E-03  (-0.4215357E-03)
 number of electron       8.0000000 magnetization 
 augmentation part        8.0000000 magnetization 

 Free energy of the ion-electron system (eV)
  ---------------------------------------------------
  alpha Z        PSCENC =         5.09113229
  Ewald energy   TEWEN  =       551.13459490
  -Hartree energ DENC   =      -777.05864006
  -exchange      EXHF   =         0.00000000
  -V(xc)+E(xc)   XCENC  =        27.46714392
  PAW double counting   =        75.66288619      -77.96384553
  entropy T*S    EENTRO =        -0.02507507
  eigenvalues    EBANDS =      -117.71012369
  atomic energy  EATOM  =       294.25444774
  Solvation  Ediel_sol  =         0.00000000
  ---------------------------------------------------
  free energy    TOTEN  =       -19.14747929 eV

  energy without entropy =      -19.12240422  energy(sigma->0) =      -19.13912093


--------------------------------------------------------------------------------------------------------




 average (electrostatic) potential at core
  the test charge radii are     0.6991
  (the norm of the test charge is              1.0000)
       1 -62.8965       2 -62.8965
 
 
 
 E-fermi :  -4.9992     XC(G=0):  -3.9367     alpha+bet : -3.1363


 k-point     1 :       0.0000    0.0000    0.0000
  band No.  band energies     occupation 
      1     -25.0240      2.00000
      2     -12.1735      2.00000
      3      -9.4710      2.00000
      4      -9.4696      2.00000
      5       1.2661      0.00000
      6       2.3002      0.00000
      7       2.3009      0.00000
      8       2.5878      0.00000
      9       3.6367      0.00000
     10       5.5836      0.00000
     11       6.3313      0.00000
     12       6.4849      0.00000
     13       7.7014      0.00000
     14      12.5201      0.00000

 k-point     2 :       0.3333    0.0000    0.0000
  band No.  band energies     occupation 
      1     -22.5561      2.00000
      2     -15.5970      2.00000
      3     -12.0158      2.00000
      4      -9.3351      2.00000
      5      -0.2590     -0.00000
      6       1.9550      0.00000
      7       4.7243      0.00000
      8       6.0321      0.00000
      9       7.1837      0.00000
     10       9.7028      0.00000
     11       9.7534      0.00000
     12      10.4079      0.00000
     13      11.1440      0.00000
     14      13.7318      0.00000

 k-point     3 :       0.0000    0.3333    0.0000
  band No.  band energies     occupation 
      1     -22.5561      2.00000
      2     -15.5970      2.00000
      3     -12.0158      2.00000
      4      -9.3351      2.00000
      5      -0.2590     -0.00000
      6       1.9550      0.00000
      7       4.7243      0.00000
      8       6.0321      0.00000
      9       7.1837      0.00000
     10       9.7028      0.00000
     11       9.7528      0.00000
     12      10.4075      0.00000
     13      11.1440      0.00000
     14      13.7316      0.00000

 k-point     4 :       0.3333    0.3333    0.0000
  band No.  band energies     occupation 
      1     -18.4712      2.00000
      2     -18.4711      2.00000
      3     -16.3256      2.00000
      4      -4.9993      1.00091
      5      -4.9991      0.99909
      6       7.2126      0.00000
      7       7.9307      0.00000
      8       7.9311      0.00000
      9       9.8704      0.00000
     10      12.4736      0.00000
     11      12.4754      0.00000
     12      13.1376      0.00000
     13      13.1403      0.00000
     14      13.5248      0.00000

 k-point     5 :      -0.3333    0.3333    0.0000
  band No.  band energies     occupation 
      1     -22.5561      2.00000
      2     -15.5975      2.00000
      3     -12.0150      2.00000
      4      -9.3351      2.00000
      5      -0.2591     -0.00000
      6       1.9548      0.00000
      7       4.7243      0.00000
      8       6.0321      0.00000
      9       7.1837      0.00000
     10       9.7028      0.00000
     11       9.7553      0.00000
     12      10.4066      0.00000
     13      11.1440      0.00000
     14      13.7329      0.00000


--------------------------------------------------------------------------------------------------------


 soft charge-density along one line, spin component           1
         0         1         2         3         4         5         6         7         8         9
 total charge-density along one line
 
 pseudopotential strength for first ion, spin component:           1
 10.479   0.027  -0.000   0.000   0.000   0.000  -0.000  -0.000
  0.027  -0.001   0.000  -0.000  -0.000   0.000  -0.000  -0.000
 -0.000   0.000  -4.631   0.000   0.000  -0.003   0.000   0.000
  0.000  -0.000   0.000  -4.598  -0.000   0.000   0.002  -0.000
  0.000  -0.000   0.000  -0.000  -4.631   0.000  -0.000  -0.003
  0.000   0.000  -0.003   0.000   0.000  -0.776   0.000   0.000
 -0.000  -0.000   0.000   0.002  -0.000   0.000  -0.775  -0.000
 -0.000  -0.000   0.000  -0.000  -0.003   0.000  -0.000  -0.776
 total augmentation occupancy for first ion, spin component:           1
  2.000   0.000   0.000   0.000   0.000   0.000   0.000   0.000
  0.000   0.000   0.000   0.000   0.000   0.000   0.000   0.000
  0.000   0.000   0.667   0.000   0.000   0.000   0.000   0.000
  0.000   0.000   0.000   0.667   0.000   0.000   0.000   0.000
  0.000   0.000   0.000   0.000   0.667   0.000   0.000   0.000
  0.000   0.000   0.000   0.000   0.000   0.000   0.000   0.000
  0.000   0.000   0.000   0.000   0.000   0.000   0.000   0.000
  0.000   0.000   0.000   0.000   0.000   0.000   0.000   0.000


----------------------------------------- Iteration    1(   5)  ---------------------------------------


     EDDAV:  cpu time    0.1210: real time    0.2890
       DOS:  cpu time    0.0010: real time    0.0012
    CHARGE:  cpu time    0.0070: real time    0.0157
    MIXING:  cpu time    0.0010: real time    0.0006
    --------------------------------------------
      LOOP:  cpu time    0.1320: real time    0.3096

 eigenvalue-minimisations  :   168
 total energy-change (2. order) :-0.1669123E-05  (-0.1669272E-05)
 number of electron       8.0000000 magnetization 
 augmentation part        0.2143562 magnetization 

 Broyden mixing:
  rms(total) = 0.54824E+00    rms(broyden)= 0.54817E+00
  rms(prec ) = 0.67471E+00
  weight for this iteration     100.00

 Free energy of the ion-electron system (eV)
  ---------------------------------------------------
  alpha Z        PSCENC =         5.09113229
  Ewald energy   TEWEN  =       551.13459490
  -Hartree energ DENC   =      -777.05864006
  -exchange      EXHF   =         0.00000000
  -V(xc)+E(xc)   XCENC  =        27.46714392
  PAW double counting   =        75.66288619      -77.96384553
  entropy T*S    EENTRO =        -0.02507507
  eigenvalues    EBANDS =      -117.71012535
  atomic energy  EATOM  =       294.25444774
  Solvation  Ediel_sol  =         0.00000000
  ---------------------------------------------------
  free energy    TOTEN  =       -19.14748096 eV

  energy without entropy =      -19.12240589  energy(sigma->0) =      -19.13912260


--------------------------------------------------------------------------------------------------------




 average (electrostatic) potential at core
  the test charge radii are     0.6991
  (the norm of the test charge is              1.0000)
       1 -62.8965       2 -62.8965
 
 
 
 E-fermi :  -4.9992     XC(G=0):  -3.9367     alpha+bet : -3.1363


 k-point     1 :       0.0000    0.0000    0.0000
  band No.  band energies     occupation 
      1     -25.0240      2.00000
      2     -12.1735      2.00000
      3      -9.4710      2.00000
      4      -9.4696      2.00000
      5       1.2661      0.00000
      6       2.3002      0.00000
      7       2.3009      0.00000
      8       2.5878      0.00000
      9       3.6367      0.00000
     10       5.5835      0.00000
     11       6.3313      0.00000
     12       6.4849      0.00000
     13       7.7014      0.00000
     14      12.5201      0.00000

 k-point     2 :       0.3333    0.0000    0.0000
  band No.  band energies     occupation 
      1     -22.5561      2.00000
      2     -15.5970      2.00000
      3     -12.0158      2.00000
      4      -9.3351      2.00000
      5      -0.2590     -0.00000
      6       1.9550      0.00000
      7       4.7243      0.00000
      8       6.0321      0.00000
      9       7.1837      0.00000
     10       9.7028      0.00000
     11       9.7528      0.00000
     12      10.4075      0.00000
     13      11.1440      0.00000
     14      13.7315      0.00000

 k-point     3 :       0.0000    0.3333    0.0000
  band No.  band energies     occupation 
      1     -22.5561      2.00000
      2     -15.5970      2.00000
      3     -12.0158      2.00000
      4      -9.3351      2.00000
      5      -0.2590     -0.00000
      6       1.9550      0.00000
      7       4.7243      0.00000
      8       6.0321      0.00000
      9       7.1837      0.00000
     10       9.7028      0.00000
     11       9.7528      0.00000
     12      10.4074      0.00000
     13      11.1440      0.00000
     14      13.7315      0.00000

 k-point     4 :       0.3333    0.3333    0.0000
  band No.  band energies     occupation 
      1     -18.4712      2.00000
      2     -18.4711      2.00000
      3     -16.3256      2.00000
      4      -4.9993      1.00091
      5      -4.9991      0.99909
      6       7.2126      0.00000
      7       7.9307      0.00000
      8       7.9310      0.00000
      9       9.8703      0.00000
     10      12.4734      0.00000
     11      12.4735      0.00000
     12      13.1371      0.00000
     13      13.1373      0.00000
     14      13.5111      0.00000

 k-point     5 :      -0.3333    0.3333    0.0000
  band No.  band energies     occupation 
      1     -22.5561      2.00000
      2     -15.5975      2.00000
      3     -12.0150      2.00000
      4      -9.3351      2.00000
      5      -0.2591     -0.00000
      6       1.9548      0.00000
      7       4.7243      0.00000
      8       6.0321      0.00000
      9       7.1837      0.00000
     10       9.7028      0.00000
     11       9.7537      0.00000
     12      10.4063      0.00000
     13      11.1439      0.00000
     14      13.7316      0.00000


--------------------------------------------------------------------------------------------------------


 soft charge-density along one line, spin component           1
         0         1         2         3         4         5         6         7         8         9
 total charge-density along one line
 
 pseudopotential strength for first ion, spin component:           1
 10.479   0.027  -0.000   0.000   0.000   0.000  -0.000  -0.000
  0.027  -0.001   0.000  -0.000  -0.000   0.000  -0.000  -0.000
 -0.000   0.000  -4.631   0.000   0.000  -0.003   0.000   0.000
  0.000  -0.000   0.000  -4.598  -0.000   0.000   0.002  -0.000
  0.000  -0.000   0.000  -0.000  -4.631   0.000  -0.000  -0.003
  0.000   0.000  -0.003   0.000   0.000  -0.776   0.000   0.000
 -0.000  -0.000   0.000   0.002  -0.000   0.000  -0.775  -0.000
 -0.000  -0.000   0.000  -0.000  -0.003   0.000  -0.000  -0.776
 total augmentation occupancy for first ion, spin component:           1
  1.494  -0.938   0.000  -0.000  -0.000  -0.000  -0.000   0.000
 -0.938   0.739   0.000  -0.000  -0.000   0.000  -0.000  -0.000
  0.000   0.000   1.289  -0.000  -0.000   0.207  -0.000   0.000
 -0.000  -0.000  -0.000   1.055  -0.000   0.000   0.077   0.000
 -0.000  -0.000  -0.000  -0.000   1.289   0.000  -0.000   0.207
 -0.000   0.000   0.207   0.000   0.000   0.039  -0.000   0.000
 -0.000  -0.000  -0.000   0.077  -0.000  -0.000   0.008  -0.000
  0.000  -0.000   0.000   0.000   0.207   0.000  -0.000   0.039


----------------------------------------- Iteration    1(   6)  ---------------------------------------


    POTLOK:  cpu time    0.0060: real time    0.0048
    SETDIJ:  cpu time    0.0020: real time    0.0026
     EDDAV:  cpu time    0.1480: real time    0.2995
       DOS:  cpu time    0.0010: real time    0.0018
    CHARGE:  cpu time    0.0040: real time    0.0042
    MIXING:  cpu time    0.0010: real time    0.0004
    --------------------------------------------
      LOOP:  cpu time    0.1620: real time    0.3154

 eigenvalue-minimisations  :   196
 total energy-change (2. order) : 0.8838404E+00  (-0.8483971E-01)
 number of electron       8.0000000 magnetization 
 augmentation part        0.2053084 magnetization 

 Broyden mixing:
  rms(total) = 0.29092E+00    rms(broyden)= 0.29089E+00
  rms(prec ) = 0.36082E+00
  weight for this iteration     100.00

 eigenvalues of (default mixing * dielectric matrix)
  average eigenvalue GAMMA=   2.0604
  2.0604

 Free energy of the ion-electron system (eV)
  ---------------------------------------------------
  alpha Z        PSCENC =         5.09113229
  Ewald energy   TEWEN  =       551.13459490
  -Hartree energ DENC   =      -787.55184486
  -exchange      EXHF   =         0.00000000
  -V(xc)+E(xc)   XCENC  =        27.95951222
  PAW double counting   =       102.24592873     -104.72184486
  entropy T*S    EENTRO =        -0.02507507
  eigenvalues    EBANDS =      -106.65049160
  atomic energy  EATOM  =       294.25444774
  Solvation  Ediel_sol  =         0.00000000
  ---------------------------------------------------
  free energy    TOTEN  =       -18.26364051 eV

  energy without entropy =      -18.23856544  energy(sigma->0) =      -18.25528215


--------------------------------------------------------------------------------------------------------




 average (electrostatic) potential at core
  the test charge radii are     0.6991
  (the norm of the test charge is              1.0000)
       1 -60.5655       2 -60.5655
 
 
 
 E-fermi :  -3.9253     XC(G=0):  -4.1647     alpha+bet : -3.1363


 k-point     1 :       0.0000    0.0000    0.0000
  band No.  band energies     occupation 
      1     -23.6880      2.00000
      2     -11.2541      2.00000
      3      -7.7480      2.00000
      4      -7.7466      2.00000
      5       1.0523     -0.00000
      6       2.2710      0.00000
      7       3.1019      0.00000
      8       3.7692      0.00000
      9       3.7698      0.00000
     10       6.0887      0.00000
     11       6.9587      0.00000
     12       7.3647      0.00000
     13       7.7365      0.00000
     14      12.2560      0.00000

 k-point     2 :       0.3333    0.0000    0.0000
  band No.  band energies     occupation 
      1     -21.1761      2.00000
      2     -14.0787      2.00000
      3     -10.3697      2.00000
      4      -8.3623      2.00000
      5       0.8662     -0.00000
      6       3.2315      0.00000
      7       4.5554      0.00000
      8       5.7627      0.00000
      9       6.6486      0.00000
     10       9.3788      0.00000
     11      10.7926      0.00000
     12      11.4057      0.00000
     13      11.7269      0.00000
     14      13.8462      0.00000

 k-point     3 :       0.0000    0.3333    0.0000
  band No.  band energies     occupation 
      1     -21.1761      2.00000
      2     -14.0787      2.00000
      3     -10.3697      2.00000
      4      -8.3623      2.00000
      5       0.8662     -0.00000
      6       3.2315      0.00000
      7       4.5554      0.00000
      8       5.7627      0.00000
      9       6.6486      0.00000
     10       9.3788      0.00000
     11      10.7926      0.00000
     12      11.4057      0.00000
     13      11.7269      0.00000
     14      13.8462      0.00000

 k-point     4 :       0.3333    0.3333    0.0000
  band No.  band energies     occupation 
      1     -16.9932      2.00000
      2     -16.9930      2.00000
      3     -14.8736      2.00000
      4      -3.9254      1.00083
      5      -3.9252      0.99917
      6       7.5024      0.00000
      7       9.1558      0.00000
      8       9.1561      0.00000
      9      10.3878      0.00000
     10      12.4388      0.00000
     11      12.4401      0.00000
     12      12.8449      0.00000
     13      12.8457      0.00000
     14      13.2069      0.00000

 k-point     5 :      -0.3333    0.3333    0.0000
  band No.  band energies     occupation 
      1     -21.1761      2.00000
      2     -14.0792      2.00000
      3     -10.3689      2.00000
      4      -8.3623      2.00000
      5       0.8661     -0.00000
      6       3.2313      0.00000
      7       4.5554      0.00000
      8       5.7627      0.00000
      9       6.6485      0.00000
     10       9.3788      0.00000
     11      10.7926      0.00000
     12      11.4066      0.00000
     13      11.7258      0.00000
     14      13.8462      0.00000


--------------------------------------------------------------------------------------------------------


 soft charge-density along one line, spin component           1
         0         1         2         3         4         5         6         7         8         9
 total charge-density along one line
 
 pseudopotential strength for first ion, spin component:           1
 10.364   0.023   0.000   0.000  -0.000  -0.000  -0.000   0.000
  0.023  -0.001  -0.000  -0.000   0.000  -0.000  -0.000   0.000
  0.000  -0.000  -4.487   0.000   0.000  -0.012   0.000   0.000
  0.000  -0.000   0.000  -4.465  -0.000   0.000  -0.008  -0.000
 -0.000   0.000   0.000  -0.000  -4.487   0.000  -0.000  -0.012
 -0.000  -0.000  -0.012   0.000   0.000  -0.774   0.000   0.000
 -0.000  -0.000   0.000  -0.008  -0.000   0.000  -0.774  -0.000
  0.000   0.000   0.000  -0.000  -0.012   0.000  -0.000  -0.774
 total augmentation occupancy for first ion, spin component:           1
  1.468  -1.062  -0.000   0.000  -0.000   0.000  -0.000   0.000
 -1.062   0.921  -0.000   0.000   0.000  -0.000   0.000   0.000
 -0.000  -0.000   1.257   0.000  -0.000   0.217  -0.000   0.000
  0.000   0.000   0.000   0.995   0.000   0.000   0.092   0.000
 -0.000   0.000  -0.000   0.000   1.257   0.000  -0.000   0.217
  0.000  -0.000   0.217   0.000   0.000   0.043  -0.000   0.000
 -0.000   0.000  -0.000   0.092  -0.000  -0.000   0.011  -0.000
  0.000   0.000   0.000   0.000   0.217   0.000  -0.000   0.043


----------------------------------------- Iteration    1(   7)  ---------------------------------------


    POTLOK:  cpu time    0.0040: real time    0.0045
    SETDIJ:  cpu time    0.0030: real time    0.0026
     EDDAV:  cpu time    0.1220: real time    0.2646
       DOS:  cpu time    0.0010: real time    0.0008
    CHARGE:  cpu time    0.0080: real time    0.0091
    MIXING:  cpu time    0.0010: real time    0.0004
    --------------------------------------------
      LOOP:  cpu time    0.1400: real time    0.2841

 eigenvalue-minimisations  :   196
 total energy-change (2. order) : 0.3419667E+00  (-0.1016080E+00)
 number of electron       8.0000000 magnetization 
 augmentation part        0.1955165 magnetization 

 Broyden mixing:
  rms(total) = 0.49606E-01    rms(broyden)= 0.49423E-01
  rms(prec ) = 0.66788E-01
  weight for this iteration     100.00

 eigenvalues of (default mixing * dielectric matrix)
  average eigenvalue GAMMA=   2.2458
  2.1004  2.3913

 Free energy of the ion-electron system (eV)
  ---------------------------------------------------
  alpha Z        PSCENC =         5.09113229
  Ewald energy   TEWEN  =       551.13459490
  -Hartree energ DENC   =      -800.87503052
  -exchange      EXHF   =         0.00000000
  -V(xc)+E(xc)   XCENC  =        28.57557556
  PAW double counting   =       136.46952543     -139.09529006
  entropy T*S    EENTRO =        -0.02507502
  eigenvalues    EBANDS =       -93.45155418
  atomic energy  EATOM  =       294.25444774
  Solvation  Ediel_sol  =         0.00000000
  ---------------------------------------------------
  free energy    TOTEN  =       -17.92167384 eV

  energy without entropy =      -17.89659882  energy(sigma->0) =      -17.91331550


--------------------------------------------------------------------------------------------------------




 average (electrostatic) potential at core
  the test charge radii are     0.6991
  (the norm of the test charge is              1.0000)
       1 -58.0090       2 -58.0080
 
 
 
 E-fermi :  -2.6481     XC(G=0):  -4.1976     alpha+bet : -3.1363


 k-point     1 :       0.0000    0.0000    0.0000
  band No.  band energies     occupation 
      1     -22.0701      2.00000
      2     -10.1366      2.00000
      3      -5.7203      2.00000
      4      -5.7190      2.00000
      5       0.8942     -0.00000
      6       2.0098     -0.00000
      7       2.8891      0.00000
      8       5.5158      0.00000
      9       5.5163      0.00000
     10       5.9550      0.00000
     11       7.1692      0.00000
     12       8.5644      0.00000
     13       9.3856      0.00000
     14      12.1622      0.00000

 k-point     2 :       0.3333    0.0000    0.0000
  band No.  band energies     occupation 
      1     -19.5138      2.00000
      2     -12.2719      2.00000
      3      -8.4249      2.00000
      4      -7.1911      2.00000
      5       2.1883     -0.00000
      6       4.3887      0.00000
      7       4.8325      0.00000
      8       5.5427      0.00000
      9       6.4386      0.00000
     10       9.3057      0.00000
     11      10.6256      0.00000
     12      13.0276      0.00000
     13      13.3363      0.00000
     14      14.1564      0.00000

 k-point     3 :       0.0000    0.3333    0.0000
  band No.  band energies     occupation 
      1     -19.5138      2.00000
      2     -12.2719      2.00000
      3      -8.4249      2.00000
      4      -7.1911      2.00000
      5       2.1883     -0.00000
      6       4.3887      0.00000
      7       4.8325      0.00000
      8       5.5427      0.00000
      9       6.4386      0.00000
     10       9.3057      0.00000
     11      10.6256      0.00000
     12      13.0274      0.00000
     13      13.3363      0.00000
     14      14.1564      0.00000

 k-point     4 :       0.3333    0.3333    0.0000
  band No.  band energies     occupation 
      1     -15.2336      2.00000
      2     -15.2335      2.00000
      3     -13.1233      2.00000
      4      -2.6483      1.00167
      5      -2.6479      0.99833
      6       7.9957      0.00000
      7      10.2643      0.00000
      8      10.2645      0.00000
      9      10.8988      0.00000
     10      12.6116      0.00000
     11      12.6119      0.00000
     12      12.6260      0.00000
     13      12.6260      0.00000
     14      13.1114      0.00000

 k-point     5 :      -0.3333    0.3333    0.0000
  band No.  band energies     occupation 
      1     -19.5138      2.00000
      2     -12.2723      2.00000
      3      -8.4242      2.00000
      4      -7.1910      2.00000
      5       2.1882     -0.00000
      6       4.3886      0.00000
      7       4.8323      0.00000
      8       5.5426      0.00000
      9       6.4386      0.00000
     10       9.3057      0.00000
     11      10.6256      0.00000
     12      13.0266      0.00000
     13      13.3371      0.00000
     14      14.1565      0.00000


--------------------------------------------------------------------------------------------------------


 soft charge-density along one line, spin component           1
         0         1         2         3         4         5         6         7         8         9
 total charge-density along one line
 
 pseudopotential strength for first ion, spin component:           1
 10.225   0.019   0.000  -0.000   0.000  -0.000   0.000  -0.000
  0.019  -0.002  -0.000   0.000  -0.000  -0.000   0.000  -0.000
  0.000  -0.000  -4.332  -0.000  -0.000  -0.019  -0.000   0.000
 -0.000   0.000  -0.000  -4.325   0.000  -0.000  -0.016  -0.000
  0.000  -0.000  -0.000   0.000  -4.332   0.000  -0.000  -0.019
 -0.000  -0.000  -0.019  -0.000   0.000  -0.772  -0.000  -0.000
  0.000   0.000  -0.000  -0.016  -0.000  -0.000  -0.772   0.000
 -0.000  -0.000   0.000  -0.000  -0.019  -0.000   0.000  -0.772
 total augmentation occupancy for first ion, spin component:           1
  1.441  -1.162   0.000   0.000   0.000  -0.000   0.000  -0.000
 -1.162   1.091   0.000  -0.001  -0.000   0.000  -0.000  -0.000
  0.000   0.000   1.224   0.000  -0.000   0.227   0.000   0.000
  0.000  -0.001   0.000   0.932  -0.000   0.000   0.107   0.000
  0.000  -0.000  -0.000  -0.000   1.224   0.000  -0.000   0.227
 -0.000   0.000   0.227   0.000   0.000   0.048   0.000   0.000
  0.000  -0.000   0.000   0.107  -0.000   0.000   0.014  -0.000
 -0.000  -0.000   0.000   0.000   0.227   0.000  -0.000   0.048


----------------------------------------- Iteration    1(   8)  ---------------------------------------


    POTLOK:  cpu time    0.0050: real time    0.0047
    SETDIJ:  cpu time    0.0020: real time    0.0026
     EDDAV:  cpu time    0.1410: real time    0.2869
       DOS:  cpu time    0.0000: real time    0.0003
    CHARGE:  cpu time    0.0080: real time    0.0079
    MIXING:  cpu time    0.0010: real time    0.0006
    --------------------------------------------
      LOOP:  cpu time    0.1580: real time    0.3053

 eigenvalue-minimisations  :   210
 total energy-change (2. order) : 0.9667902E-02  (-0.6807709E-03)
 number of electron       8.0000000 magnetization 
 augmentation part        0.1953586 magnetization 

 Broyden mixing:
  rms(total) = 0.78012E-02    rms(broyden)= 0.77490E-02
  rms(prec ) = 0.26150E-01
  weight for this iteration     100.00

 eigenvalues of (default mixing * dielectric matrix)
  average eigenvalue GAMMA=   1.9626
  1.1820  2.0701  2.6355

 Free energy of the ion-electron system (eV)
  ---------------------------------------------------
  alpha Z        PSCENC =         5.09113229
  Ewald energy   TEWEN  =       551.13459490
  -Hartree energ DENC   =      -803.49065687
  -exchange      EXHF   =         0.00000000
  -V(xc)+E(xc)   XCENC  =        28.61877592
  PAW double counting   =       137.96482623     -140.53691207
  entropy T*S    EENTRO =        -0.02507301
  eigenvalues    EBANDS =       -90.92314107
  atomic energy  EATOM  =       294.25444774
  Solvation  Ediel_sol  =         0.00000000
  ---------------------------------------------------
  free energy    TOTEN  =       -17.91200594 eV

  energy without entropy =      -17.88693293  energy(sigma->0) =      -17.90364827


--------------------------------------------------------------------------------------------------------




 average (electrostatic) potential at core
  the test charge radii are     0.6991
  (the norm of the test charge is              1.0000)
       1 -57.8189       2 -57.8241
 
 
 
 E-fermi :  -2.3577     XC(G=0):  -4.1942     alpha+bet : -3.1363


 k-point     1 :       0.0000    0.0000    0.0000
  band No.  band energies     occupation 
      1     -21.7419      2.00000
      2      -9.8434      2.00000
      3      -5.4024      2.00000
      4      -5.4013      2.00000
      5       0.9470     -0.00000
      6       2.0643     -0.00000
      7       2.6967     -0.00000
      8       5.8388      0.00000
      9       5.8394      0.00000
     10       5.8790      0.00000
     11       7.1228      0.00000
     12       8.8561      0.00000
     13       9.6863      0.00000
     14      12.1507      0.00000

 k-point     2 :       0.3333    0.0000    0.0000
  band No.  band energies     occupation 
      1     -19.1871      2.00000
      2     -11.9479      2.00000
      3      -8.1038      2.00000
      4      -6.8989      2.00000
      5       2.4799     -0.00000
      6       4.4730      0.00000
      7       5.1487      0.00000
      8       5.6090      0.00000
      9       6.2415      0.00000
     10       9.2443      0.00000
     11      10.5850      0.00000
     12      13.2890      0.00000
     13      13.6464      0.00000
     14      14.3108      0.00000

 k-point     3 :       0.0000    0.3333    0.0000
  band No.  band energies     occupation 
      1     -19.1871      2.00000
      2     -11.9478      2.00000
      3      -8.1038      2.00000
      4      -6.8989      2.00000
      5       2.4799     -0.00000
      6       4.4730      0.00000
      7       5.1487      0.00000
      8       5.6090      0.00000
      9       6.2415      0.00000
     10       9.2443      0.00000
     11      10.5850      0.00000
     12      13.2889      0.00000
     13      13.6464      0.00000
     14      14.3108      0.00000

 k-point     4 :       0.3333    0.3333    0.0000
  band No.  band energies     occupation 
      1     -14.9137      2.00000
      2     -14.9129      2.00000
      3     -12.7855      2.00000
      4      -2.3588      1.00891
      5      -2.3567      0.99109
      6       8.2984      0.00000
      7      10.4871      0.00000
      8      10.4877      0.00000
      9      11.1332      0.00000
     10      12.5243      0.00000
     11      12.5244      0.00000
     12      12.6894      0.00000
     13      12.6896      0.00000
     14      12.9045      0.00000

 k-point     5 :      -0.3333    0.3333    0.0000
  band No.  band energies     occupation 
      1     -19.1871      2.00000
      2     -11.9482      2.00000
      3      -8.1032      2.00000
      4      -6.8989      2.00000
      5       2.4798     -0.00000
      6       4.4729      0.00000
      7       5.1485      0.00000
      8       5.6090      0.00000
      9       6.2415      0.00000
     10       9.2443      0.00000
     11      10.5849      0.00000
     12      13.2882      0.00000
     13      13.6472      0.00000
     14      14.3109      0.00000


--------------------------------------------------------------------------------------------------------


 soft charge-density along one line, spin component           1
         0         1         2         3         4         5         6         7         8         9
 total charge-density along one line
 
 pseudopotential strength for first ion, spin component:           1
 10.204   0.018   0.000  -0.000  -0.000  -0.000  -0.000   0.000
  0.018  -0.002   0.000  -0.000   0.000  -0.000   0.000   0.000
  0.000   0.000  -4.324   0.000  -0.000  -0.017  -0.000   0.000
 -0.000  -0.000   0.000  -4.319  -0.000  -0.000  -0.014  -0.000
 -0.000   0.000  -0.000  -0.000  -4.324   0.000  -0.000  -0.017
 -0.000  -0.000  -0.017  -0.000   0.000  -0.772   0.000  -0.000
 -0.000   0.000  -0.000  -0.014  -0.000   0.000  -0.772  -0.000
  0.000   0.000   0.000  -0.000  -0.017  -0.000  -0.000  -0.772
 total augmentation occupancy for first ion, spin component:           1
  1.442  -1.147   0.000   0.000  -0.000  -0.000  -0.000   0.000
 -1.147   1.070   0.000  -0.000  -0.000   0.000  -0.000  -0.000
  0.000   0.000   1.225   0.000  -0.000   0.226   0.000   0.000
  0.000  -0.000   0.000   0.928  -0.000   0.000   0.106  -0.000
 -0.000  -0.000  -0.000  -0.000   1.225   0.000  -0.000   0.226
 -0.000   0.000   0.226   0.000   0.000   0.048   0.000   0.000
 -0.000  -0.000   0.000   0.106  -0.000   0.000   0.014  -0.000
  0.000  -0.000   0.000  -0.000   0.226   0.000  -0.000   0.048


----------------------------------------- Iteration    1(   9)  ---------------------------------------


    POTLOK:  cpu time    0.0050: real time    0.0056
    SETDIJ:  cpu time    0.0040: real time    0.0037
     EDDAV:  cpu time    0.2150: real time    0.3603
       DOS:  cpu time    0.0000: real time    0.0005
    CHARGE:  cpu time    0.0030: real time    0.0040
    MIXING:  cpu time    0.0010: real time    0.0004
    --------------------------------------------
      LOOP:  cpu time    0.2290: real time    0.3768

 eigenvalue-minimisations  :   252
 total energy-change (2. order) : 0.2033924E-02  (-0.1392197E-03)
 number of electron       8.0000000 magnetization 
 augmentation part        0.1951080 magnetization 

 Broyden mixing:
  rms(total) = 0.86951E-02    rms(broyden)= 0.86803E-02
  rms(prec ) = 0.21270E-01
  weight for this iteration     100.00

 eigenvalues of (default mixing * dielectric matrix)
  average eigenvalue GAMMA=   1.6726
  2.7288  2.0778  1.4674  0.4162

 Free energy of the ion-electron system (eV)
  ---------------------------------------------------
  alpha Z        PSCENC =         5.09113229
  Ewald energy   TEWEN  =       551.13459490
  -Hartree energ DENC   =      -804.72251545
  -exchange      EXHF   =         0.00000000
  -V(xc)+E(xc)   XCENC  =        28.64147672
  PAW double counting   =       138.22057070     -140.78959356
  entropy T*S    EENTRO =        -0.02505943
  eigenvalues    EBANDS =       -89.71502594
  atomic energy  EATOM  =       294.25444774
  Solvation  Ediel_sol  =         0.00000000
  ---------------------------------------------------
  free energy    TOTEN  =       -17.90997202 eV

  energy without entropy =      -17.88491259  energy(sigma->0) =      -17.90161887


--------------------------------------------------------------------------------------------------------




 average (electrostatic) potential at core
  the test charge radii are     0.6991
  (the norm of the test charge is              1.0000)
       1 -57.6776       2 -57.6635
 
 
 
 E-fermi :  -2.2165     XC(G=0):  -4.1575     alpha+bet : -3.1363


 k-point     1 :       0.0000    0.0000    0.0000
  band No.  band energies     occupation 
      1     -21.5890      2.00000
      2      -9.7067      2.00000
      3      -5.2451      2.00000
      4      -5.2439      2.00000
      5       0.9816     -0.00000
      6       2.1182     -0.00000
      7       2.6660     -0.00000
      8       5.8801      0.00000
      9       5.9931      0.00000
     10       5.9937      0.00000
     11       7.1708      0.00000
     12       9.0054      0.00000
     13       9.8369      0.00000
     14      12.1908      0.00000

 k-point     2 :       0.3333    0.0000    0.0000
  band No.  band energies     occupation 
      1     -19.0336      2.00000
      2     -11.7927      2.00000
      3      -7.9472      2.00000
      4      -6.7606      2.00000
      5       2.6214     -0.00000
      6       4.5153      0.00000
      7       5.2959      0.00000
      8       5.6648      0.00000
      9       6.2118      0.00000
     10       9.2535      0.00000
     11      10.6341      0.00000
     12      13.4092      0.00000
     13      13.8017      0.00000
     14      14.3847      0.00000

 k-point     3 :       0.0000    0.3333    0.0000
  band No.  band energies     occupation 
      1     -19.0336      2.00000
      2     -11.7927      2.00000
      3      -7.9472      2.00000
      4      -6.7607      2.00000
      5       2.6214     -0.00000
      6       4.5153      0.00000
      7       5.2959      0.00000
      8       5.6648      0.00000
      9       6.2118      0.00000
     10       9.2535      0.00000
     11      10.6341      0.00000
     12      13.4092      0.00000
     13      13.8017      0.00000
     14      14.3847      0.00000

 k-point     4 :       0.3333    0.3333    0.0000
  band No.  band energies     occupation 
      1     -14.7604      2.00000
      2     -14.7580      2.00000
      3     -12.6296      2.00000
      4      -2.2194      1.02442
      5      -2.2136      0.97558
      6       8.4086      0.00000
      7      10.5897      0.00000
      8      10.5914      0.00000
      9      11.2146      0.00000
     10      12.5332      0.00000
     11      12.5339      0.00000
     12      12.7420      0.00000
     13      12.7421      0.00000
     14      12.8847      0.00000

 k-point     5 :      -0.3333    0.3333    0.0000
  band No.  band energies     occupation 
      1     -19.0336      2.00000
      2     -11.7930      2.00000
      3      -7.9465      2.00000
      4      -6.7606      2.00000
      5       2.6213     -0.00000
      6       4.5153      0.00000
      7       5.2957      0.00000
      8       5.6648      0.00000
      9       6.2118      0.00000
     10       9.2535      0.00000
     11      10.6341      0.00000
     12      13.4084      0.00000
     13      13.8025      0.00000
     14      14.3848      0.00000


--------------------------------------------------------------------------------------------------------


 soft charge-density along one line, spin component           1
         0         1         2         3         4         5         6         7         8         9
 total charge-density along one line
 
 pseudopotential strength for first ion, spin component:           1
 10.194   0.018  -0.000  -0.000  -0.000   0.000  -0.000   0.000
  0.018  -0.002   0.000  -0.000  -0.000  -0.000   0.000   0.000
 -0.000   0.000  -4.316   0.000  -0.000  -0.017   0.000   0.000
 -0.000  -0.000   0.000  -4.312  -0.000   0.000  -0.014  -0.000
 -0.000  -0.000  -0.000  -0.000  -4.316   0.000  -0.000  -0.017
  0.000  -0.000  -0.017   0.000   0.000  -0.772   0.000  -0.000
 -0.000   0.000   0.000  -0.014  -0.000   0.000  -0.772  -0.000
  0.000   0.000   0.000  -0.000  -0.017  -0.000  -0.000  -0.772
 total augmentation occupancy for first ion, spin component:           1
  1.442  -1.144   0.000   0.000  -0.000  -0.000  -0.000   0.000
 -1.144   1.065   0.000  -0.000  -0.000   0.000  -0.000  -0.000
  0.000   0.000   1.225   0.000  -0.000   0.226   0.000   0.000
  0.000  -0.000   0.000   0.935   0.000   0.000   0.106  -0.000
 -0.000  -0.000  -0.000   0.000   1.226   0.000  -0.000   0.226
 -0.000   0.000   0.226   0.000   0.000   0.048   0.000   0.000
 -0.000  -0.000   0.000   0.106  -0.000   0.000   0.014  -0.000
  0.000  -0.000   0.000  -0.000   0.226   0.000  -0.000   0.047


----------------------------------------- Iteration    1(  10)  ---------------------------------------


    POTLOK:  cpu time    0.0050: real time    0.0046
    SETDIJ:  cpu time    0.0030: real time    0.0029
     EDDAV:  cpu time    0.1470: real time    0.3112
       DOS:  cpu time    0.0010: real time    0.0011
    CHARGE:  cpu time    0.0040: real time    0.0044
    MIXING:  cpu time    0.0010: real time    0.0005
    --------------------------------------------
      LOOP:  cpu time    0.1620: real time    0.3268

 eigenvalue-minimisations  :   154
 total energy-change (2. order) : 0.8147209E-03  (-0.2134713E-03)
 number of electron       8.0000000 magnetization 
 augmentation part        0.1949869 magnetization 

 Broyden mixing:
  rms(total) = 0.12334E-01    rms(broyden)= 0.12300E-01
  rms(prec ) = 0.20273E-01
  weight for this iteration     100.00

 eigenvalues of (default mixing * dielectric matrix)
  average eigenvalue GAMMA=   1.9111
  3.7119  2.5093  2.0008  0.9667  0.3670

 Free energy of the ion-electron system (eV)
  ---------------------------------------------------
  alpha Z        PSCENC =         5.09113229
  Ewald energy   TEWEN  =       551.13459490
  -Hartree energ DENC   =      -805.73420034
  -exchange      EXHF   =         0.00000000
  -V(xc)+E(xc)   XCENC  =        28.65451892
  PAW double counting   =       137.96729040     -140.53697581
  entropy T*S    EENTRO =        -0.02501071
  eigenvalues    EBANDS =       -88.71495470
  atomic energy  EATOM  =       294.25444774
  Solvation  Ediel_sol  =         0.00000000
  ---------------------------------------------------
  free energy    TOTEN  =       -17.90915730 eV

  energy without entropy =      -17.88414659  energy(sigma->0) =      -17.90082039


--------------------------------------------------------------------------------------------------------




 average (electrostatic) potential at core
  the test charge radii are     0.6991
  (the norm of the test charge is              1.0000)
       1 -57.5270       2 -57.5557
 
 
 
 E-fermi :  -2.0957     XC(G=0):  -4.1072     alpha+bet : -3.1363


 k-point     1 :       0.0000    0.0000    0.0000
  band No.  band energies     occupation 
      1     -21.4628      2.00000
      2      -9.5894      2.00000
      3      -5.1172      2.00000
      4      -5.1160      2.00000
      5       1.0287     -0.00000
      6       2.1877     -0.00000
      7       2.6600     -0.00000
      8       5.9039      0.00000
      9       6.1203      0.00000
     10       6.1208      0.00000
     11       7.2392      0.00000
     12       9.1315      0.00000
     13       9.9631      0.00000
     14      12.2594      0.00000

 k-point     2 :       0.3333    0.0000    0.0000
  band No.  band energies     occupation 
      1     -18.9072      2.00000
      2     -11.6655      2.00000
      3      -7.8195      2.00000
      4      -6.6421      2.00000
      5       2.7421     -0.00000
      6       4.5672      0.00000
      7       5.4176      0.00000
      8       5.7348      0.00000
      9       6.2073      0.00000
     10       9.2840      0.00000
     11      10.7027      0.00000
     12      13.5128      0.00000
     13      13.9292      0.00000
     14      14.4599      0.00000

 k-point     3 :       0.0000    0.3333    0.0000
  band No.  band energies     occupation 
      1     -18.9072      2.00000
      2     -11.6655      2.00000
      3      -7.8195      2.00000
      4      -6.6421      2.00000
      5       2.7421     -0.00000
      6       4.5672      0.00000
      7       5.4176      0.00000
      8       5.7348      0.00000
      9       6.2073      0.00000
     10       9.2840      0.00000
     11      10.7027      0.00000
     12      13.5128      0.00000
[...]


----------------------------------------- Iteration    2(  10)  ---------------------------------------


   POT+DIJ:  cpu time    0.0160: real time    0.0156
    HAMIL1:  cpu time    0.0140: real time    0.0379
    LRDIAG:  cpu time    0.0050: real time    0.0044
    LRDIIS:  cpu time    0.0250: real time    0.0315
    LRDIAG:  cpu time    0.0030: real time    0.0027
    MIXING:  cpu time    0.0020: real time    0.0009
    --------------------------------------------
      LOOP:  cpu time    0.0810: real time    0.1100

 Broyden mixing:
  rms(total) = 0.27866E-05    rms(broyden)= 0.27863E-05
  rms(prec ) = 0.31833E-05
  weight for this iteration     100.00

 eigenvalues of (default mixing * dielectric matrix)
  average eigenvalue GAMMA=   1.7668
  2.9101  2.4863  2.4863  2.1168  1.1849  0.9762  0.9762  0.9976

 Free energy of the ion-electron system (eV)
  ---------------------------------------------------
  -Hartree energ DENC   =        -0.01382197
  -V(xc)+E(xc)   XCENC  =         0.00108457
  PAW double counting   =         0.01346144       -0.01314830
  entropy T*S    EENTRO =         0.00000000
  eigenvalues    EBANDS =        -0.12643888
  ---------------------------------------------------
  free energy    TOTEN  =        -0.13886314 eV

  energy without entropy =       -0.13886314


----------------------------------------- Iteration    2(  11)  ---------------------------------------


   POT+DIJ:  cpu time    0.0170: real time    0.0172
    HAMIL1:  cpu time    0.0160: real time    0.0382
    LRDIAG:  cpu time    0.0030: real time    0.0030
    LRDIIS:  cpu time    0.0270: real time    0.0333
    LRDIAG:  cpu time    0.0030: real time    0.0035
    MIXING:  cpu time    0.0010: real time    0.0008
    --------------------------------------------
      LOOP:  cpu time    0.0750: real time    0.1042

 Broyden mixing:
  rms(total) = 0.41600E-06    rms(broyden)= 0.41590E-06
  rms(prec ) = 0.49265E-06
  weight for this iteration     100.00

 eigenvalues of (default mixing * dielectric matrix)
  average eigenvalue GAMMA=   1.7418
  2.9638  2.5763  2.4453  2.0712  1.4592  1.1736  0.9870  0.9870  1.0130

 Free energy of the ion-electron system (eV)
  ---------------------------------------------------
  -Hartree energ DENC   =        -0.01382120
  -V(xc)+E(xc)   XCENC  =         0.00108450
  PAW double counting   =         0.01346184       -0.01314869
  entropy T*S    EENTRO =         0.00000000
  eigenvalues    EBANDS =        -0.12654078
  ---------------------------------------------------
  free energy    TOTEN  =        -0.13896432 eV

  energy without entropy =       -0.13896432


------------------------ aborting loop because EDIFF is reached ----------------------------------------


 change of polarisation eV/A/(eV/A) component  2 :    -0.000     0.260    -0.000
 dielectric tensor                  component  2 :    -0.000     1.735    -0.000


--------------------------------------------------------------------------------------------------------


    FORLOC:  cpu time    0.0030: real time    0.0030
    FORNL :  cpu time    0.0610: real time    0.4113
    STRESS:  cpu time    0.1620: real time    1.3070
    OFIELD:  cpu time    0.0000: real time    0.0001
    FORLOC:  cpu time    0.0040: real time    0.0024
    FORNL :  cpu time    0.0640: real time    0.4995
    STRESS:  cpu time    0.1280: real time    1.2906
    OFIELD:  cpu time    0.0000: real time    0.0001
    FORNLD:  cpu time    0.1170: real time    1.4913

 PIEZOELECTRIC TENSOR FIELD DIRECTION 2  (e Angst)
 -----------------------------------------------------------------------------
     0.01765 -1.34101 -0.00001           ( -0.00000  0.00001  0.00000)
    -1.34101 -0.01760  0.00001           (  0.00001 -0.00000  0.00001)
    -0.00001  0.00001  0.00002           (  0.00000  0.00001  0.00000)

 PIEZOELECTRIC TENSOR FIELD DIRECTION 2  (C/m^2)
 -----------------------------------------------------------------------------
     0.00442 -0.33562 -0.00000
    -0.33562 -0.00440  0.00000
    -0.00000  0.00000  0.00000


      POSITION         DIRECTION 2           BORN EFFECTIVE CHARGE    (rigid.aug.   ionic)
 -----------------------------------------------------------------------------------------
     -1.23769      2.14827      1.70619    -1.38324  0.00747  0.00000 ( -0.09739  4.00000)
      0.00328      1.43180      1.70619     1.38314 -0.02959 -0.00002 ( -0.09739  4.00000)
 -----------------------------------------------------------------------------------------
    total drift (improves with k-points):  -0.00009 -0.02213 -0.00002




--------------------------------------------------------------------------------------------------------


 Linear response to external field, progress :
  Direction:   3


----------------------------------------- Iteration    3(   1)  ---------------------------------------


   POT+DIJ:  cpu time    0.0270: real time    0.0268
    HAMIL1:  cpu time    0.0090: real time    0.0332
    LRDIAG:  cpu time    0.0040: real time    0.0035
    LRDIIS:  cpu time    0.0290: real time    0.0333
    LRDIAG:  cpu time    0.0010: real time    0.0019
    --------------------------------------------
      LOOP:  cpu time    0.0700: real time    0.0987

 Free energy of the ion-electron system (eV)
  ---------------------------------------------------
  -Hartree energ DENC   =         0.00000000
  -V(xc)+E(xc)   XCENC  =         0.00000000
  PAW double counting   =         0.00000000        0.00000000
  entropy T*S    EENTRO =         0.00000000
  eigenvalues    EBANDS =        -0.08651578
  ---------------------------------------------------
  free energy    TOTEN  =        -0.08651578 eV

  energy without entropy =       -0.08651578


----------------------------------------- Iteration    3(   2)  ---------------------------------------


   POT+DIJ:  cpu time    0.0180: real time    0.0171
    HAMIL1:  cpu time    0.0080: real time    0.0317
    LRDIAG:  cpu time    0.0020: real time    0.0027
    LRDIIS:  cpu time    0.0220: real time    0.0264
    LRDIAG:  cpu time    0.0020: real time    0.0022
    MIXING:  cpu time    0.0000: real time    0.0003
    --------------------------------------------
      LOOP:  cpu time    0.0650: real time    0.0937

 Broyden mixing:
  rms(total) = 0.48726E-01    rms(broyden)= 0.48720E-01
  rms(prec ) = 0.10680E+00
  weight for this iteration     100.00

 Free energy of the ion-electron system (eV)
  ---------------------------------------------------
  -Hartree energ DENC   =         0.00000000
  -V(xc)+E(xc)   XCENC  =         0.00000000
  PAW double counting   =         0.00000000        0.00000000
  entropy T*S    EENTRO =         0.00000000
  eigenvalues    EBANDS =        -0.08801004
  ---------------------------------------------------
  free energy    TOTEN  =        -0.08801004 eV

  energy without entropy =       -0.08801004


----------------------------------------- Iteration    3(   3)  ---------------------------------------


   POT+DIJ:  cpu time    0.0180: real time    0.0175
    HAMIL1:  cpu time    0.0090: real time    0.0336
    LRDIAG:  cpu time    0.0060: real time    0.0062
    LRDIIS:  cpu time    0.0250: real time    0.0306
    LRDIAG:  cpu time    0.0010: real time    0.0020
    MIXING:  cpu time    0.0000: real time    0.0004
    --------------------------------------------
      LOOP:  cpu time    0.0680: real time    0.0980

 Broyden mixing:
  rms(total) = 0.19180E-01    rms(broyden)= 0.19180E-01
  rms(prec ) = 0.53175E-01
  weight for this iteration     100.00

 eigenvalues of (default mixing * dielectric matrix)
  average eigenvalue GAMMA=   1.3186
  1.3186

 Free energy of the ion-electron system (eV)
  ---------------------------------------------------
  -Hartree energ DENC   =        -0.00614760
  -V(xc)+E(xc)   XCENC  =         0.00015985
  PAW double counting   =         0.00002037       -0.00002037
  entropy T*S    EENTRO =         0.00000000
  eigenvalues    EBANDS =        -0.04655215
  ---------------------------------------------------
  free energy    TOTEN  =        -0.05253990 eV

  energy without entropy =       -0.05253990


----------------------------------------- Iteration    3(   4)  ---------------------------------------


   POT+DIJ:  cpu time    0.0290: real time    0.0295
    HAMIL1:  cpu time    0.0190: real time    0.0443
    LRDIAG:  cpu time    0.0040: real time    0.0037
    LRDIIS:  cpu time    0.0240: real time    0.0294
    LRDIAG:  cpu time    0.0010: real time    0.0019
    MIXING:  cpu time    0.0000: real time    0.0004
    --------------------------------------------
      LOOP:  cpu time    0.0920: real time    0.1236

 Broyden mixing:
  rms(total) = 0.10641E-01    rms(broyden)= 0.10638E-01
  rms(prec ) = 0.23299E-01
  weight for this iteration     100.00

 eigenvalues of (default mixing * dielectric matrix)
  average eigenvalue GAMMA=   1.9223
  1.9223  1.9223

 Free energy of the ion-electron system (eV)
  ---------------------------------------------------
  -Hartree energ DENC   =        -0.01784047
  -V(xc)+E(xc)   XCENC  =         0.00042309
  PAW double counting   =         0.00000413       -0.00000307
  entropy T*S    EENTRO =         0.00000000
  eigenvalues    EBANDS =        -0.02557372
  ---------------------------------------------------
  free energy    TOTEN  =        -0.04299003 eV

  energy without entropy =       -0.04299003


----------------------------------------- Iteration    3(   5)  ---------------------------------------


   POT+DIJ:  cpu time    0.0220: real time    0.0224
    HAMIL1:  cpu time    0.0170: real time    0.0410
    LRDIAG:  cpu time    0.0040: real time    0.0043
    LRDIIS:  cpu time    0.0280: real time    0.0331
    LRDIAG:  cpu time    0.0030: real time    0.0031
    MIXING:  cpu time    0.0020: real time    0.0018
    --------------------------------------------
      LOOP:  cpu time    0.0870: real time    0.1168

 Broyden mixing:
  rms(total) = 0.43889E-02    rms(broyden)= 0.43879E-02
  rms(prec ) = 0.10437E-01
  weight for this iteration     100.00

 eigenvalues of (default mixing * dielectric matrix)
  average eigenvalue GAMMA=   2.3916
  2.7995  2.7995  1.5759

 Free energy of the ion-electron system (eV)
  ---------------------------------------------------
  -Hartree energ DENC   =        -0.02196712
  -V(xc)+E(xc)   XCENC  =         0.00051601
  PAW double counting   =         0.00019395       -0.00018627
  entropy T*S    EENTRO =         0.00000000
  eigenvalues    EBANDS =        -0.02016396
  ---------------------------------------------------
  free energy    TOTEN  =        -0.04160739 eV

  energy without entropy =       -0.04160739


----------------------------------------- Iteration    3(   6)  ---------------------------------------


   POT+DIJ:  cpu time    0.0310: real time    0.0311
    HAMIL1:  cpu time    0.0100: real time    0.0384
    LRDIAG:  cpu time    0.0050: real time    0.0048
    LRDIIS:  cpu time    0.0250: real time    0.0318
    LRDIAG:  cpu time    0.0020: real time    0.0018
    MIXING:  cpu time    0.0000: real time    0.0006
    --------------------------------------------
      LOOP:  cpu time    0.0820: real time    0.1168

 Broyden mixing:
  rms(total) = 0.15402E-02    rms(broyden)= 0.15395E-02
  rms(prec ) = 0.40683E-02
  weight for this iteration     100.00

 eigenvalues of (default mixing * dielectric matrix)
  average eigenvalue GAMMA=   2.4325
  3.6614  3.2131  1.4277  1.4277

 Free energy of the ion-electron system (eV)
  ---------------------------------------------------
  -Hartree energ DENC   =        -0.02289209
  -V(xc)+E(xc)   XCENC  =         0.00047324
  PAW double counting   =         0.00005434       -0.00005203
  entropy T*S    EENTRO =         0.00000000
  eigenvalues    EBANDS =        -0.01825784
  ---------------------------------------------------
  free energy    TOTEN  =        -0.04067436 eV

  energy without entropy =       -0.04067436


----------------------------------------- Iteration    3(   7)  ---------------------------------------


   POT+DIJ:  cpu time    0.0230: real time    0.0234
    HAMIL1:  cpu time    0.0170: real time    0.0418
    LRDIAG:  cpu time    0.0030: real time    0.0043
    LRDIIS:  cpu time    0.0300: real time    0.0351
    LRDIAG:  cpu time    0.0120: real time    0.0125
    MIXING:  cpu time    0.0020: real time    0.0008
    --------------------------------------------
      LOOP:  cpu time    0.1000: real time    0.1318

 Broyden mixing:
  rms(total) = 0.12400E-02    rms(broyden)= 0.12399E-02
  rms(prec ) = 0.23698E-02
  weight for this iteration     100.00

 eigenvalues of (default mixing * dielectric matrix)
  average eigenvalue GAMMA=   3.0843
  6.7827  3.4204  1.0368  1.5749  2.6064

 Free energy of the ion-electron system (eV)
  ---------------------------------------------------
  -Hartree energ DENC   =        -0.02264908
  -V(xc)+E(xc)   XCENC  =         0.00045605
  PAW double counting   =         0.00003853       -0.00003681
  entropy T*S    EENTRO =         0.00000000
  eigenvalues    EBANDS =        -0.01830929
  ---------------------------------------------------
  free energy    TOTEN  =        -0.04050060 eV

  energy without entropy =       -0.04050060


----------------------------------------- Iteration    3(   8)  ---------------------------------------


   POT+DIJ:  cpu time    0.0340: real time    0.0349
    HAMIL1:  cpu time    0.0160: real time    0.0417
    LRDIAG:  cpu time    0.0040: real time    0.0042
    LRDIIS:  cpu time    0.0310: real time    0.0355
    LRDIAG:  cpu time    0.0050: real time    0.0047
    MIXING:  cpu time    0.0010: real time    0.0008
    --------------------------------------------
      LOOP:  cpu time    0.1000: real time    0.1314

 Broyden mixing:
  rms(total) = 0.26756E-03    rms(broyden)= 0.26750E-03
  rms(prec ) = 0.40741E-03
  weight for this iteration     100.00

 eigenvalues of (default mixing * dielectric matrix)
  average eigenvalue GAMMA=   3.2662
  7.7983  1.0058  1.5774  3.4963  3.1460  2.5737

 Free energy of the ion-electron system (eV)
  ---------------------------------------------------
  -Hartree energ DENC   =        -0.02271566
  -V(xc)+E(xc)   XCENC  =         0.00041157
  PAW double counting   =         0.00006386       -0.00006100
  entropy T*S    EENTRO =         0.00000000
  eigenvalues    EBANDS =        -0.01828668
  ---------------------------------------------------
  free energy    TOTEN  =        -0.04058791 eV

  energy without entropy =       -0.04058791


------------------------ aborting loop because EDIFF is reached ----------------------------------------


 change of polarisation eV/A/(eV/A) component  3 :     0.000     0.000     0.075
 dielectric tensor                  component  3 :     0.000     0.000     1.211


--------------------------------------------------------------------------------------------------------


    FORLOC:  cpu time    0.0000: real time    0.0004
    FORNL :  cpu time    0.0550: real time    0.5447
    STRESS:  cpu time    0.1320: real time    1.2991
    OFIELD:  cpu time    0.0000: real time    0.0001
    FORLOC:  cpu time    0.0010: real time    0.0002
    FORNL :  cpu time    0.0530: real time    0.4041
    STRESS:  cpu time    0.1460: real time    1.4850
    OFIELD:  cpu time    0.0000: real time    0.0001
    FORNLD:  cpu time    0.1230: real time    1.1509

 PIEZOELECTRIC TENSOR FIELD DIRECTION 3  (e Angst)
 -----------------------------------------------------------------------------
    -0.00005  0.00001 -0.00001           (  0.00001  0.00000  0.00000)
     0.00001 -0.00001 -0.00012           (  0.00000  0.00001 -0.00001)
    -0.00001 -0.00012 -0.00003           (  0.00000 -0.00001  0.00002)

 PIEZOELECTRIC TENSOR FIELD DIRECTION 3  (C/m^2)
 -----------------------------------------------------------------------------
    -0.00001  0.00000 -0.00000
     0.00000 -0.00000 -0.00003
    -0.00000 -0.00003 -0.00001


      POSITION         DIRECTION 3           BORN EFFECTIVE CHARGE    (rigid.aug.   ionic)
 -----------------------------------------------------------------------------------------
     -1.23769      2.14827      1.70619     0.00000 -0.00002  0.00459 ( -0.09739  4.00000)
      0.00328      1.43180      1.70619     0.00001  0.00001  0.00480 ( -0.09739  4.00000)
 -----------------------------------------------------------------------------------------
    total drift (improves with k-points):   0.00001 -0.00000  0.00940




--------------------------------------------------------------------------------------------------------




 MACROSCOPIC STATIC DIELECTRIC TENSOR (including local field effects in DFT)
 ------------------------------------------------------
           1.735263    -0.000193     0.000000
           0.000447     1.735324     0.000000
           0.000000    -0.000000     1.211047
 ------------------------------------------------------



--------------------------------------------------------------------------------------------------------




--------------------------------------------------------------------------------------------------------




 MACROSCOPIC STATIC DIELECTRIC TENSOR (including local field effects in DFT)
 ------------------------------------------------------
           1.735263    -0.000193     0.000000
           0.000447     1.735324     0.000000
           0.000000    -0.000000     1.211047
 ------------------------------------------------------


 PIEZOELECTRIC TENSOR  for field in x, y, z        (e  Angst)
          XX          YY          ZZ          XY          YZ          ZX
  --------------------------------------------------------------------------------
  x     1.33230    -1.33235     0.00001    -0.03115     0.00000    -0.00000
  y     0.01765    -0.01760     0.00002    -1.34101     0.00001    -0.00001
  z    -0.00005    -0.00001    -0.00003     0.00001    -0.00012    -0.00001

 PIEZOELECTRIC TENSOR  for field in x, y, z        (C/m^2)
          XX          YY          ZZ          XY          YZ          ZX
  --------------------------------------------------------------------------------
  x     0.33344    -0.33345     0.00000    -0.00780     0.00000    -0.00000
  y     0.00442    -0.00440     0.00000    -0.33562     0.00000    -0.00000
  z    -0.00001    -0.00000    -0.00001     0.00000    -0.00003    -0.00000
 
 BORN EFFECTIVE CHARGES (in e, cummulative output)
 -------------------------------------------------
 ion    1
    1    -0.03209     1.37427     0.00000
    2    -1.38319     0.01853     0.00001
    3    -0.00000    -0.00002    -0.00010
 ion    2
    1     0.03209    -1.37427    -0.00000
    2     1.38319    -0.01853    -0.00001
    3     0.00000     0.00002     0.00010


--------------------------------------------------------------------------------------------------------


     LOOP+:  cpu time    8.6087: real time   27.2179
    4ORBIT:  cpu time    0.0000: real time    0.0000

 total amount of memory used by VASP MPI-rank0    32837. kBytes
=======================================================================

   base      :      30000. kBytes
   nonlr-proj:        208. kBytes
   fftplans  :       1526. kBytes
   grid      :        907. kBytes
   one-center:          6. kBytes
   wavefun   :        190. kBytes
 
  
  
 General timing and accounting informations for this job:
 ========================================================
  
                  Total CPU time used (sec):        9.806
                            User time (sec):        8.783
                          System time (sec):        1.023
                         Elapsed time (sec):       29.577
  
                   Maximum memory used (kb):      297140.
                   Average memory used (kb):           0.
  
                          Minor page faults:        64824
                          Major page faults:            0
                 Voluntary context switches:        13158
