 vasp.5.4.4.18Apr17-6-g9f103f2a35 (build May 02 2017 19:20:32) complex          
  
 executed on    fermion-Intel-MKL date 2017.12.10  16:46:39
 running on    7 total cores
 distrk:  each k-point on    7 cores,    1 groups
 distr:  one band on NCORES_PER_BAND=   1 cores,    7 groups


--------------------------------------------------------------------------------------------------------


 INCAR:
 POTCAR:   PAW_PBE C 08Apr2002                    

 ----------------------------------------------------------------------------- 
|                                                                             |
|           W    W    AA    RRRRR   N    N  II  N    N   GGGG   !!!           |
|           W    W   A  A   R    R  NN   N  II  NN   N  G    G  !!!           |
|           W    W  A    A  R    R  N N  N  II  N N  N  G       !!!           |
|           W WW W  AAAAAA  RRRRR   N  N N  II  N  N N  G  GGG   !            |
|           WW  WW  A    A  R   R   N   NN  II  N   NN  G    G                |
|           W    W  A    A  R    R  N    N  II  N    N   GGGG   !!!           |
|                                                                             |
|      For optimal performance we recommend to set                            |
|        NCORE= 4 - approx SQRT( number of cores)                             |
|      NCORE specifies how many cores store one orbital (NPAR=cpu/NCORE).     |
|      This setting can  greatly improve the performance of VASP for DFT.     |
|      The default,   NCORE=1            might be grossly inefficient         |
|      on modern multi-core architectures or massively parallel machines.     |
|      Do your own testing !!!!                                               |
|      Unfortunately you need to use the default for GW and RPA calculations. |
|      (for HF NCORE is supported but not extensively tested yet)             |
|                                                                             |
 ----------------------------------------------------------------------------- 

 POTCAR:   PAW_PBE C 08Apr2002                    
   VRHFIN =C: s2p2                                                              
   LEXCH  = PE                                                                  
   EATOM  =   147.1560 eV,   10.8157 Ry                                         
                                                                                
   TITEL  = PAW_PBE C 08Apr2002                                                 
   LULTRA =        F    use ultrasoft PP ?                                      
   IUNSCR =        0    unscreen: 0-lin 1-nonlin 2-no                           
   RPACOR =     .000    partial core radius                                     
   POMASS =   12.011; ZVAL   =    4.000    mass and valenz                      
   RCORE  =    1.500    outmost cutoff radius                                   
   RWIGS  =    1.630; RWIGS  =     .863    wigner-seitz radius (au A)           
   ENMAX  =  400.000; ENMIN  =  300.000 eV                                      
   ICORE  =        2    local potential                                         
   LCOR   =        T    correct aug charges                                     
   LPAW   =        T    paw PP                                                  
   EAUG   =  644.873                                                            
   DEXC   =     .000                                                            
   RMAX   =    2.266    core radius for proj-oper                               
   RAUG   =    1.300    factor for augmentation sphere                          
   RDEP   =    1.501    radius for radial grids                                 
   RDEPT  =    1.300    core radius for aug-charge                              
   QCUT   =   -5.516; QGAM   =   11.032    optimization parameters              
                                                                                
   Description                                                                  
     l     E      TYP  RCUT    TYP  RCUT                                        
     0   .000     23  1.200                                                     
     0   .000     23  1.200                                                     
     1   .000     23  1.500                                                     
     1  2.500     23  1.500                                                     
     2   .000      7  1.500                                                     
  local pseudopotential read in
  atomic valenz-charges read in
  non local Contribution for L=           0  read in
    real space projection operators read in
  non local Contribution for L=           0  read in
    real space projection operators read in
  non local Contribution for L=           1  read in
    real space projection operators read in
  non local Contribution for L=           1  read in
    real space projection operators read in
    PAW grid and wavefunctions read in
 
   number of l-projection  operators is LMAX  =           4
   number of lm-projection operators is LMMAX =           8
 

 ----------------------------------------------------------------------------- 
|                                                                             |
|  ADVICE TO THIS USER RUNNING 'VASP/VAMP'   (HEAR YOUR MASTER'S VOICE ...):  |
|                                                                             |
|      You have a (more or less) 'small supercell' and for smaller cells      |
|      it is recommended  to use the reciprocal-space projection scheme!      |
|      The real space optimization is not  efficient for small cells and it   |
|      is also less accurate ...                                              |
|      Therefore set LREAL=.FALSE. in the  INCAR file                         |
|                                                                             |
 ----------------------------------------------------------------------------- 

 Optimization of the real space projectors (new method)

 maximal supplied QI-value         = 25.13
 optimisation between [QCUT,QGAM] = [ 10.05, 20.36] = [ 28.30,116.06] Ry 
 Optimized for a Real-space Cutoff    1.30 Angstroem

   l    n(q)    QCUT    max X(q) W(low)/X(q) W(high)/X(q)  e(spline) 
   0      8    10.053     5.582    0.43E-04    0.44E-04    0.61E-07
   0      8    10.053    69.432    0.49E-03    0.71E-03    0.18E-06
   1      7    10.053     2.780    0.78E-04    0.13E-03    0.11E-06
   1      7    10.053     4.549    0.23E-03    0.19E-03    0.20E-06
 PAW_PBE C 08Apr2002                    :
 energy of atom  1       EATOM= -147.1560
 kinetic energy error for atom=    0.0288 (will be added to EATOM!!)
 
 
 POSCAR: OUTCAR.0001.-1.out 1.0e-02              
  positions in cartesian coordinates
  No initial velocities read in
 exchange correlation table for  LEXCH =        8
   RHO(1)=    0.500       N(1)  =     2000
   RHO(2)=  100.500       N(2)  =     4000
 


--------------------------------------------------------------------------------------------------------


 ion  position               nearest neighbor table
   1  0.000  1.000  0.142-   2 1.43   2 1.43   2 1.43
   2  0.333  0.667  0.141-   1 1.43   1 1.43   1 1.43
 

IMPORTANT INFORMATION: All symmetrisations will be switched off!
NOSYMM: (Re-)initialisation of all symmetry stuff for point group C_1.

 
 
 KPOINTS: K-Points                                

Automatic generation of k-mesh.
Space group operators:
 irot       det(A)        alpha          n_x          n_y          n_z        tau_x        tau_y        tau_z
    1     1.000000     0.000000     1.000000     0.000000     0.000000     0.000000     0.000000     0.000000
 
 Subroutine IBZKPT returns following result:
 ===========================================
 
 Found      5 irreducible k-points:
 
 Following reciprocal coordinates:
            Coordinates               Weight
  0.000000  0.000000  0.000000      1.000000
  0.333333  0.000000  0.000000      2.000000
  0.000000  0.333333  0.000000      2.000000
  0.333333  0.333333  0.000000      2.000000
 -0.333333  0.333333  0.000000      2.000000
 
 Following cartesian coordinates:
            Coordinates               Weight
  0.000000  0.000000  0.000000      1.000000
  0.134303  0.077540 -0.000000      2.000000
  0.000000  0.155080 -0.000000      2.000000
  0.134303  0.232620 -0.000000      2.000000
 -0.134303  0.077540  0.000000      2.000000
 
 
 Subroutine IBZKPT_HF returns following result:
 ==============================================
 
 Found      9 k-points in 1st BZ
 the following      9 k-points will be used (e.g. in the exchange kernel)
 Following reciprocal coordinates:   # in IRBZ
  0.000000  0.000000  0.000000    0.11111111   1 t-inv F
  0.333333  0.000000  0.000000    0.11111111   2 t-inv F
  0.000000  0.333333  0.000000    0.11111111   3 t-inv F
  0.333333  0.333333  0.000000    0.11111111   4 t-inv F
 -0.333333  0.333333  0.000000    0.11111111   5 t-inv F
 -0.333333 -0.000000 -0.000000    0.11111111   2 t-inv T
  0.000000 -0.333333 -0.000000    0.11111111   3 t-inv T
 -0.333333 -0.333333 -0.000000    0.11111111   4 t-inv T
  0.333333 -0.333333  0.000000    0.11111111   5 t-inv T


--------------------------------------------------------------------------------------------------------




 Dimension of arrays:
   k-points           NKPTS =      5   k-points in BZ     NKDIM =      5   number of bands    NBANDS=     14
   number of dos      NEDOS =    301   number of ions     NIONS =      2
   non local maximal  LDIM  =      4   non local SUM 2l+1 LMDIM =      8
   total plane-waves  NPLWV =   8640
   max r-space proj   IRMAX =   1295   max aug-charges    IRDMAX=  12939
   dimension x,y,z NGX =    12 NGY =   12 NGZ =   60
   dimension x,y,z NGXF=    24 NGYF=   24 NGZF=  120
   support grid    NGXF=    48 NGYF=   48 NGZF=  240
   ions per type =               2
   NGX,Y,Z   is equivalent  to a cutoff of   8.04,  8.04,  8.31 a.u.
   NGXF,Y,Z  is equivalent  to a cutoff of  16.08, 16.08, 16.62 a.u.

 SYSTEM =  raman                                   
 POSCAR =  OUTCAR.0001.-1.out 1.0e-02              

 Startparameter for this run:
   NWRITE =      3    write-flag & timer
   PREC   = n         normal or accurate (medium, high low for compatibility)
   ISTART =      0    job   : 0-new  1-cont  2-samecut
   ICHARG =      2    charge: 1-file 2-atom 10-const
   ISPIN  =      1    spin polarized calculation?
   LNONCOLLINEAR =      F non collinear calculations
   LSORBIT =      F    spin-orbit coupling
   INIWAV =      1    electr: 0-lowe 1-rand  2-diag
   LASPH  =      F    aspherical Exc in radial PAW
   METAGGA=      F    non-selfconsistent MetaGGA calc.

 Electronic Relaxation 1
   ENCUT  =  400.0 eV  29.40 Ry    5.42 a.u.   4.05  4.05 19.57*2*pi/ulx,y,z
   ENINI  =  400.0     initial cutoff
   ENAUG  =  644.9 eV  augmentation charge cutoff
   NELM   =     60;   NELMIN=  4; NELMDL= -5     # of ELM steps 
   EDIFF  = 0.1E-03   stopping-criterion for ELM
   LREAL  =      T    real-space projection
   NLSPLINE    = F    spline interpolate recip. space projectors
   LCOMPAT=      F    compatible to vasp.4.4
   GGA_COMPAT  = T    GGA compatible to vasp.4.4-vasp.4.6
   LMAXPAW     = -100 max onsite density
   LMAXMIX     =    2 max onsite mixed and CHGCAR
   VOSKOWN=      0    Vosko Wilk Nusair interpolation
   ROPT   =   -0.00050
 Ionic relaxation
   EDIFFG = 0.1E-02   stopping-criterion for IOM
   NSW    =      0    number of steps for IOM
   NBLOCK =      1;   KBLOCK =      1    inner block; outer block 
   IBRION =     -1    ionic relax: 0-MD 1-quasi-New 2-CG
   NFREE  =      0    steps in history (QN), initial steepest desc. (CG)
   ISIF   =      2    stress and relaxation
   IWAVPR =     10    prediction:  0-non 1-charg 2-wave 3-comb
   ISYM   =      0    0-nonsym 1-usesym 2-fastsym
   LCORR  =      T    Harris-Foulkes like correction to forces

   POTIM  = 0.5000    time-step for ionic-motion
   TEIN   =    0.0    initial temperature
   TEBEG  =    0.0;   TEEND  =   0.0 temperature during run
   SMASS  =  -3.00    Nose mass-parameter (am)
   estimated Nose-frequenzy (Omega)   =  0.10E-29 period in steps =****** mass=  -0.141E-27a.u.
   SCALEE = 1.0000    scale energy and forces
   NPACO  =    256;   APACO  = 16.0  distance and # of slots for P.C.
   PSTRESS=    0.0 pullay stress

  Mass of Ions in am
   POMASS =  12.01
  Ionic Valenz
   ZVAL   =   4.00
  Atomic Wigner-Seitz radii
   RWIGS  =  -1.00
  virtual crystal weights 
   VCA    =   1.00
   NELECT =       8.0000    total number of electrons
   NUPDOWN=      -1.0000    fix difference up-down

 DOS related values:
   EMIN   =  10.00;   EMAX   =-10.00  energy-range for DOS
   EFERMI =   0.00
   ISMEAR =     1;   SIGMA  =   0.20  broadening in eV -4-tet -1-fermi 0-gaus

 Electronic relaxation 2 (details)
   IALGO  =     38    algorithm
   LDIAG  =      T    sub-space diagonalisation (order eigenvalues)
   LSUBROT=      F    optimize rotation matrix (better conditioning)
   TURBO    =      0    0=normal 1=particle mesh
   IRESTART =      0    0=no restart 2=restart with 2 vectors
   NREBOOT  =      0    no. of reboots
   NMIN     =      0    reboot dimension
   EREF     =   0.00    reference energy to select bands
   IMIX   =      4    mixing-type and parameters
     AMIX     =   0.40;   BMIX     =  1.00
     AMIX_MAG =   1.60;   BMIX_MAG =  1.00
     AMIN     =   0.10
     WC   =   100.;   INIMIX=   1;  MIXPRE=   1;  MAXMIX= -45

 Intra band minimization:
   WEIMIN = 0.0000     energy-eigenvalue tresh-hold
   EBREAK =  0.18E-05  absolut break condition
   DEPER  =   0.30     relativ break condition  

   TIME   =   0.40     timestep for ELM

  volume/ion in A,a.u.               =      32.01       216.01
  Fermi-wavevector in a.u.,A,eV,Ry     =   0.818475  1.546694  9.114571  0.669902
  Thomas-Fermi vector in A             =   1.929109
 
 Write flags
   LWAVE        =      F    write WAVECAR
   LDOWNSAMPLE  =      F    k-point downsampling of WAVECAR
   LCHARG       =      F    write CHGCAR
   LVTOT        =      F    write LOCPOT, total local potential
   LVHAR        =      F    write LOCPOT, Hartree potential only
   LELF         =      F    write electronic localiz. function (ELF)
   LORBIT       =      0    0 simple, 1 ext, 2 COOP (PROOUT), +10 PAW based schemes


 Dipole corrections
   LMONO  =      F    monopole corrections only (constant potential shift)
   LDIPOL =      F    correct potential (dipole corrections)
   IDIPOL =      0    1-x, 2-y, 3-z, 4-all directions 
   EPSILON=  1.0000000 bulk dielectric constant

 Exchange correlation treatment:
   GGA     =    --    GGA type
   LEXCH   =     8    internal setting for exchange type
   VOSKOWN=      0    Vosko Wilk Nusair interpolation
   LHFCALC =     F    Hartree Fock is set to
   LHFONE  =     F    Hartree Fock one center treatment
   AEXX    =    0.0000 exact exchange contribution

 Linear response parameters
   LEPSILON=     T    determine dielectric tensor
   LRPA    =     F    only Hartree local field effects (RPA)
   LNABLA  =     F    use nabla operator in PAW spheres
   LVEL    =     F    velocity operator in full k-point grid
   LINTERFAST=   F  fast interpolation
   KINTER  =     0    interpolate to denser k-point grid
   CSHIFT  =0.1000    complex shift for real part using Kramers Kronig
   OMEGAMAX=  -1.0    maximum frequency
   DEG_THRESHOLD= 0.2000000E-02 threshold for treating states as degnerate
   RTIME   =   -0.100 relaxation time in fs
  (WPLASMAI=    0.000 imaginary part of plasma frequency in eV, 0.658/RTIME)
   DFIELD  = 0.0000000 0.0000000 0.0000000 field for delta impulse in time
 
 Orbital magnetization related:
   ORBITALMAG=     F  switch on orbital magnetization
   LCHIMAG   =     F  perturbation theory with respect to B field
   DQ        =  0.001000  dq finite difference perturbation B field
   LLRAUG    =     F  two centre corrections for induced B field



--------------------------------------------------------------------------------------------------------


 Static calculation
 charge density and potential will be updated during run
 non-spin polarized calculation
 Variant of blocked Davidson
 Davidson routine will perform the subspace rotation
 perform sub-space diagonalisation
    after iterative eigenvector-optimisation
 modified Broyden-mixing scheme, WC =      100.0
 initial mixing is a Kerker type mixing with AMIX =  0.4000 and BMIX =      1.0000
 Hartree-type preconditioning will be used
 using additional bands           10
 real space projection scheme for non local part
 calculate Harris-corrections to forces 
   (improved forces if not selfconsistent)
 use gradient corrections 
 use of overlap-Matrix (Vanderbilt PP)
 Methfessel and Paxton  Order N= 1 SIGMA  =   0.20


--------------------------------------------------------------------------------------------------------


  energy-cutoff  :      400.00
  volume of cell :       64.02
      direct lattice vectors                 reciprocal lattice vectors
     2.481948769  0.000000000  0.000000000     0.402909203  0.232619737 -0.000000000
    -1.240974385  2.149430685  0.000000000     0.000000000  0.465239473 -0.000000000
     0.000000000  0.000000000 12.000000000     0.000000000  0.000000000  0.083333333

  length of vectors
     2.481948769  2.481948769 12.000000000     0.465239473  0.465239473  0.083333333


 
 k-points in units of 2pi/SCALE and weight: K-Points                                
   0.00000000  0.00000000  0.00000000       0.111
   0.13430307  0.07753991 -0.00000000       0.222
   0.00000000  0.15507982 -0.00000000       0.222
   0.13430307  0.23261974 -0.00000000       0.222
  -0.13430307  0.07753991  0.00000000       0.222
 
 k-points in reciprocal lattice and weights: K-Points                                
   0.00000000  0.00000000  0.00000000       0.111
   0.33333333  0.00000000  0.00000000       0.222
   0.00000000  0.33333333  0.00000000       0.222
   0.33333333  0.33333333  0.00000000       0.222
  -0.33333333  0.33333333  0.00000000       0.222
 
 position of ions in fractional coordinates (direct lattice) 
   0.00000060  0.99999940  0.14225930
   0.33332942  0.66667062  0.14108079
 
 position of ions in cartesian coordinates  (Angst):
  -1.24097217  2.14942940  1.70711160
  -0.00001461  1.43296229  1.69296947
 


--------------------------------------------------------------------------------------------------------


 k-point  1 :   0.0000 0.0000 0.0000  plane waves:    1125
 k-point  2 :   0.3333 0.0000 0.0000  plane waves:    1167
 k-point  3 :   0.0000 0.3333 0.0000  plane waves:    1167
 k-point  4 :   0.3333 0.3333 0.0000  plane waves:    1146
 k-point  5 :  -0.3333 0.3333 0.0000  plane waves:    1167

 maximum and minimum number of plane-waves per node :      1167     1125

 maximum number of plane-waves:      1167
 maximum index in each direction: 
   IXMAX=    4   IYMAX=    4   IZMAX=   19
   IXMIN=   -4   IYMIN=   -4   IZMIN=  -19


 serial   3D FFT for wavefunctions
 parallel 3D FFT for charge:
    minimum data exchange during FFTs selected (reduces bandwidth)


 total amount of memory used by VASP MPI-rank0    32837. kBytes
=======================================================================

   base      :      30000. kBytes
   nonlr-proj:        208. kBytes
   fftplans  :       1526. kBytes
   grid      :        907. kBytes
   one-center:          6. kBytes
   wavefun   :        190. kBytes
 
     INWAV:  cpu time    0.0000: real time    0.0000
 Broyden mixing: mesh for mixing (old mesh)
   NGX =  9   NGY =  9   NGZ = 39
  (NGX  = 24   NGY  = 24   NGZ  =120)
  gives a total of   3159 points

 initial charge density was supplied:
 charge density of overlapping atoms calculated
 number of electron       8.0000000 magnetization 
 keeping initial charge density in first step


--------------------------------------------------------------------------------------------------------


 Maximum index for non-local projection operator         1188
 Maximum index for augmentation-charges         1865 (set IRDMAX)


--------------------------------------------------------------------------------------------------------


 First call to EWALD:  gamma=   0.443
 Maximum number of real-space cells 5x 5x 1
 Maximum number of reciprocal cells 2x 2x 7

    FEWALD:  cpu time    0.0020: real time    0.0017


----------------------------------------- Iteration    1(   1)  ---------------------------------------


    POTLOK:  cpu time    0.0080: real time    0.0079
    SETDIJ:  cpu time    0.0040: real time    0.0037
     EDDAV:  cpu time    0.2040: real time    0.3949
       DOS:  cpu time    0.0030: real time    0.0021
    --------------------------------------------
      LOOP:  cpu time    0.2210: real time    0.4114

 eigenvalue-minimisations  :   140
 total energy-change (2. order) : 0.1324879E+02  (-0.3579186E+03)
 number of electron       8.0000000 magnetization 
 augmentation part        8.0000000 magnetization 

 Free energy of the ion-electron system (eV)
  ---------------------------------------------------
  alpha Z        PSCENC =         5.09113229
  Ewald energy   TEWEN  =       551.10423273
  -Hartree energ DENC   =      -777.03646552
  -exchange      EXHF   =         0.00000000
  -V(xc)+E(xc)   XCENC  =        27.46668014
  PAW double counting   =        75.66288619      -77.96384553
  entropy T*S    EENTRO =        -0.01068828
  eigenvalues    EBANDS =       -85.31959174
  atomic energy  EATOM  =       294.25444774
  Solvation  Ediel_sol  =         0.00000000
  ---------------------------------------------------
  free energy    TOTEN  =        13.24878803 eV

  energy without entropy =       13.25947630  energy(sigma->0) =       13.25235079


--------------------------------------------------------------------------------------------------------




 average (electrostatic) potential at core
  the test charge radii are     0.6991
  (the norm of the test charge is              1.0000)
       1 -62.8955       2 -62.8955
 
 
 
 E-fermi :   2.6483     XC(G=0):  -3.9368     alpha+bet : -3.1363


 k-point     1 :       0.0000    0.0000    0.0000
  band No.  band energies     occupation 
      1     -24.3041      2.00000
      2     -11.2428      2.00000
      3      -3.9365      2.00000
      4       1.2896      2.00000
      5       2.5604      1.67030
      6       2.9811     -0.04030
      7       3.8871     -0.00000
      8       6.9257     -0.00000
      9       8.2406      0.00000
     10      11.0758      0.00000
     11      13.9903      0.00000
     12      15.8398      0.00000
     13      20.8656      0.00000
     14      21.6680      0.00000

 k-point     2 :       0.3333    0.0000    0.0000
  band No.  band energies     occupation 
      1     -21.8306      2.00000
      2     -11.5693      2.00000
      3      -7.4418      2.00000
      4      -5.4739      2.00000
      5       5.1724     -0.00000
      6       6.6385     -0.00000
      7       7.5098     -0.00000
      8      10.0059      0.00000
      9      11.7795      0.00000
     10      13.8085      0.00000
     11      16.8834      0.00000
     12      17.8627      0.00000
     13      20.7844      0.00000
     14      25.0920      0.00000

 k-point     3 :       0.0000    0.3333    0.0000
  band No.  band energies     occupation 
      1     -21.8344      2.00000
      2     -10.4194      2.00000
      3      -7.6334      2.00000
      4      -3.2890      2.00000
      5       5.2608     -0.00000
      6       6.4713     -0.00000
      7       7.4982     -0.00000
      8      10.0578      0.00000
      9      11.7663      0.00000
     10      13.3667      0.00000
     11      16.3410      0.00000
     12      18.3902      0.00000
     13      18.9327      0.00000
     14      20.2348      0.00000

 k-point     4 :       0.3333    0.3333    0.0000
  band No.  band energies     occupation 
      1     -16.7367      2.00000
      2     -14.8530      2.00000
      3     -13.0261      2.00000
      4       0.0606      2.00000
      5       3.0101     -0.02817
      6      12.2687      0.00000
      7      13.1509      0.00000
      8      13.5739      0.00000
      9      14.2678      0.00000
     10      14.8707      0.00000
     11      16.1988      0.00000
     12      17.6136      0.00000
     13      19.4806      0.00000
     14      21.2884      0.00000

 k-point     5 :      -0.3333    0.3333    0.0000
  band No.  band energies     occupation 
      1     -21.6738      2.00000
      2     -12.5510      2.00000
      3      -7.1880      2.00000
      4       2.6229      1.21317
      5       5.2737     -0.00000
      6       7.1831     -0.00000
      7       7.8932     -0.00000
      8       9.5131      0.00000
      9      12.0791      0.00000
     10      15.3951      0.00000
     11      17.8343      0.00000
     12      19.4820      0.00000
     13      22.0034      0.00000
     14      22.2063      0.00000


--------------------------------------------------------------------------------------------------------


 soft charge-density along one line, spin component           1
         0         1         2         3         4         5         6         7         8         9
 total charge-density along one line
 
 pseudopotential strength for first ion, spin component:           1
 10.479   0.027  -0.000  -0.000   0.000   0.000   0.000  -0.000
  0.027  -0.001   0.000   0.000  -0.000   0.000   0.000  -0.000
 -0.000   0.000  -4.631  -0.000   0.000  -0.003  -0.000   0.000
 -0.000   0.000  -0.000  -4.598   0.000  -0.000   0.002   0.000
  0.000  -0.000   0.000   0.000  -4.631   0.000   0.000  -0.003
  0.000   0.000  -0.003  -0.000   0.000  -0.776  -0.000   0.000
  0.000   0.000  -0.000   0.002   0.000  -0.000  -0.775   0.000
 -0.000  -0.000   0.000   0.000  -0.003   0.000   0.000  -0.776
 total augmentation occupancy for first ion, spin component:           1
  2.000   0.000   0.000   0.000   0.000   0.000   0.000   0.000
  0.000   0.000   0.000   0.000   0.000   0.000   0.000   0.000
  0.000   0.000   0.667   0.000   0.000   0.000   0.000   0.000
  0.000   0.000   0.000   0.667   0.000   0.000   0.000   0.000
  0.000   0.000   0.000   0.000   0.667   0.000   0.000   0.000
  0.000   0.000   0.000   0.000   0.000   0.000   0.000   0.000
  0.000   0.000   0.000   0.000   0.000   0.000   0.000   0.000
  0.000   0.000   0.000   0.000   0.000   0.000   0.000   0.000


----------------------------------------- Iteration    1(   2)  ---------------------------------------


     EDDAV:  cpu time    0.1550: real time    0.3505
       DOS:  cpu time    0.0000: real time    0.0005
    --------------------------------------------
      LOOP:  cpu time    0.1550: real time    0.3536

 eigenvalue-minimisations  :   224
 total energy-change (2. order) :-0.3201208E+02  (-0.3013544E+02)
 number of electron       8.0000000 magnetization 
 augmentation part        8.0000000 magnetization 

 Free energy of the ion-electron system (eV)
  ---------------------------------------------------
  alpha Z        PSCENC =         5.09113229
  Ewald energy   TEWEN  =       551.10423273
  -Hartree energ DENC   =      -777.03646552
  -exchange      EXHF   =         0.00000000
  -V(xc)+E(xc)   XCENC  =        27.46668014
  PAW double counting   =        75.66288619      -77.96384553
  entropy T*S    EENTRO =        -0.02268910
  eigenvalues    EBANDS =      -117.31967332
  atomic energy  EATOM  =       294.25444774
  Solvation  Ediel_sol  =         0.00000000
  ---------------------------------------------------
  free energy    TOTEN  =       -18.76329438 eV

  energy without entropy =      -18.74060528  energy(sigma->0) =      -18.75573135


--------------------------------------------------------------------------------------------------------




 average (electrostatic) potential at core
  the test charge radii are     0.6991
  (the norm of the test charge is              1.0000)
       1 -62.8955       2 -62.8955
 
 
 
 E-fermi :  -4.9230     XC(G=0):  -3.9368     alpha+bet : -3.1363


 k-point     1 :       0.0000    0.0000    0.0000
  band No.  band energies     occupation 
      1     -25.0205      2.00000
      2     -12.1670      2.00000
      3      -9.4467      2.00000
      4      -9.2468      2.00000
      5       1.2653      0.00000
      6       2.4778      0.00000
      7       2.5584      0.00000
      8       2.6015      0.00000
      9       3.6366      0.00000
     10       5.8907      0.00000
     11       6.4613      0.00000
     12       6.5506      0.00000
     13       7.7176      0.00000
     14      12.5920      0.00000

 k-point     2 :       0.3333    0.0000    0.0000
  band No.  band energies     occupation 
      1     -22.5539      2.00000
      2     -15.5806      2.00000
      3     -11.9893      2.00000
      4      -9.3261      2.00000
      5      -0.1795     -0.00000
      6       2.0362      0.00000
      7       4.7297      0.00000
      8       6.0473      0.00000
      9       7.1864      0.00000
     10       9.7217      0.00000
     11      10.0376      0.00000
     12      10.6070      0.00000
     13      11.1640      0.00000
     14      13.8326      0.00000

 k-point     3 :       0.0000    0.3333    0.0000
  band No.  band energies     occupation 
      1     -22.5542      2.00000
      2     -15.5711      2.00000
      3     -11.9863      2.00000
      4      -9.3267      2.00000
      5      -0.1519     -0.00000
      6       2.0660      0.00000
      7       4.7301      0.00000
      8       6.0433      0.00000
      9       7.1875      0.00000
     10       9.7251      0.00000
     11       9.8974      0.00000
     12      10.5668      0.00000
     13      11.1791      0.00000
     14      13.7895      0.00000

 k-point     4 :       0.3333    0.3333    0.0000
  band No.  band energies     occupation 
      1     -18.4578      2.00000
      2     -18.4304      2.00000
      3     -16.2947      2.00000
      4      -4.9591      1.30010
      5      -4.8869      0.69990
      6       7.3144      0.00000
      7       8.3211      0.00000
      8       9.4469      0.00000
      9      10.3592      0.00000
     10      12.6068      0.00000
     11      12.9927      0.00000
     12      13.3733      0.00000
     13      13.4544      0.00000
     14      14.3337      0.00000

 k-point     5 :      -0.3333    0.3333    0.0000
  band No.  band energies     occupation 
      1     -22.5396      2.00000
      2     -15.5378      2.00000
      3     -11.6726      2.00000
      4      -9.2739      2.00000
      5       0.2111     -0.00000
      6       2.7605      0.00000
      7       4.7495      0.00000
      8       6.1273      0.00000
      9       7.2184      0.00000
     10       9.8570      0.00000
     11      11.2662      0.00000
     12      14.0912      0.00000
     13      15.0739      0.00000
     14      16.7848      0.00000


--------------------------------------------------------------------------------------------------------


 soft charge-density along one line, spin component           1
         0         1         2         3         4         5         6         7         8         9
 total charge-density along one line
 
 pseudopotential strength for first ion, spin component:           1
 10.479   0.027  -0.000  -0.000   0.000   0.000   0.000  -0.000
  0.027  -0.001   0.000   0.000  -0.000   0.000   0.000  -0.000
 -0.000   0.000  -4.631  -0.000   0.000  -0.003  -0.000   0.000
 -0.000   0.000  -0.000  -4.598   0.000  -0.000   0.002   0.000
  0.000  -0.000   0.000   0.000  -4.631   0.000   0.000  -0.003
  0.000   0.000  -0.003  -0.000   0.000  -0.776  -0.000   0.000
  0.000   0.000  -0.000   0.002   0.000  -0.000  -0.775   0.000
 -0.000  -0.000   0.000   0.000  -0.003   0.000   0.000  -0.776
 total augmentation occupancy for first ion, spin component:           1
  2.000   0.000   0.000   0.000   0.000   0.000   0.000   0.000
  0.000   0.000   0.000   0.000   0.000   0.000   0.000   0.000
  0.000   0.000   0.667   0.000   0.000   0.000   0.000   0.000
  0.000   0.000   0.000   0.667   0.000   0.000   0.000   0.000
  0.000   0.000   0.000   0.000   0.667   0.000   0.000   0.000
  0.000   0.000   0.000   0.000   0.000   0.000   0.000   0.000
  0.000   0.000   0.000   0.000   0.000   0.000   0.000   0.000
  0.000   0.000   0.000   0.000   0.000   0.000   0.000   0.000


----------------------------------------- Iteration    1(   3)  ---------------------------------------


     EDDAV:  cpu time    0.1670: real time    0.3612
       DOS:  cpu time    0.0030: real time    0.0024
    --------------------------------------------
      LOOP:  cpu time    0.1710: real time    0.3657

 eigenvalue-minimisations  :   182
 total energy-change (2. order) :-0.3817621E+00  (-0.3793973E+00)
 number of electron       8.0000000 magnetization 
 augmentation part        8.0000000 magnetization 

 Free energy of the ion-electron system (eV)
  ---------------------------------------------------
  alpha Z        PSCENC =         5.09113229
  Ewald energy   TEWEN  =       551.10423273
  -Hartree energ DENC   =      -777.03646552
  -exchange      EXHF   =         0.00000000
  -V(xc)+E(xc)   XCENC  =        27.46668014
  PAW double counting   =        75.66288619      -77.96384553
  entropy T*S    EENTRO =        -0.02507504
  eigenvalues    EBANDS =      -117.69904952
  atomic energy  EATOM  =       294.25444774
  Solvation  Ediel_sol  =         0.00000000
  ---------------------------------------------------
  free energy    TOTEN  =       -19.14505652 eV

  energy without entropy =      -19.11998148  energy(sigma->0) =      -19.13669817


--------------------------------------------------------------------------------------------------------




 average (electrostatic) potential at core
  the test charge radii are     0.6991
  (the norm of the test charge is              1.0000)
       1 -62.8955       2 -62.8955
 
 
 
 E-fermi :  -4.9990     XC(G=0):  -3.9368     alpha+bet : -3.1363


 k-point     1 :       0.0000    0.0000    0.0000
  band No.  band energies     occupation 
      1     -25.0232      2.00000
      2     -12.1725      2.00000
      3      -9.4685      2.00000
      4      -9.4668      2.00000
      5       1.2632      0.00000
      6       2.3022      0.00000
      7       2.3026      0.00000
      8       2.5879      0.00000
      9       3.6340      0.00000
     10       5.5846      0.00000
     11       6.3268      0.00000
     12       6.4900      0.00000
     13       7.7070      0.00000
     14      12.5220      0.00000

 k-point     2 :       0.3333    0.0000    0.0000
  band No.  band energies     occupation 
      1     -22.5551      2.00000
      2     -15.5954      2.00000
      3     -12.0135      2.00000
      4      -9.3342      2.00000
      5      -0.2616     -0.00000
      6       1.9563      0.00000
      7       4.7254      0.00000
      8       6.0322      0.00000
      9       7.1840      0.00000
     10       9.7025      0.00000
     11       9.7581      0.00000
     12      10.4132      0.00000
     13      11.1442      0.00000
     14      13.7333      0.00000

 k-point     3 :       0.0000    0.3333    0.0000
  band No.  band energies     occupation 
      1     -22.5551      2.00000
      2     -15.5954      2.00000
      3     -12.0135      2.00000
      4      -9.3342      2.00000
      5      -0.2615     -0.00000
      6       1.9572      0.00000
      7       4.7254      0.00000
      8       6.0322      0.00000
      9       7.1840      0.00000
     10       9.7028      0.00000
     11       9.7551      0.00000
     12      10.4128      0.00000
     13      11.1448      0.00000
     14      13.7333      0.00000

 k-point     4 :       0.3333    0.3333    0.0000
  band No.  band energies     occupation 
      1     -18.4702      2.00000
      2     -18.4699      2.00000
      3     -16.3237      2.00000
      4      -4.9992      1.00135
      5      -4.9989      0.99865
      6       7.2095      0.00000
      7       7.9343      0.00000
      8       7.9562      0.00000
      9       9.8792      0.00000
     10      12.4752      0.00000
     11      12.5321      0.00000
     12      13.1471      0.00000
     13      13.1775      0.00000
     14      13.6521      0.00000

 k-point     5 :      -0.3333    0.3333    0.0000
  band No.  band energies     occupation 
      1     -22.5552      2.00000
      2     -15.5961      2.00000
      3     -12.0127      2.00000
      4      -9.3341      2.00000
      5      -0.2619     -0.00000
      6       1.9563      0.00000
      7       4.7254      0.00000
      8       6.0323      0.00000
      9       7.1840      0.00000
     10       9.7029      0.00000
     11       9.8422      0.00000
     12      10.4354      0.00000
     13      11.1460      0.00000
     14      13.7535      0.00000


--------------------------------------------------------------------------------------------------------


 soft charge-density along one line, spin component           1
         0         1         2         3         4         5         6         7         8         9
 total charge-density along one line
 
 pseudopotential strength for first ion, spin component:           1
 10.479   0.027  -0.000  -0.000   0.000   0.000   0.000  -0.000
  0.027  -0.001   0.000   0.000  -0.000   0.000   0.000  -0.000
 -0.000   0.000  -4.631  -0.000   0.000  -0.003  -0.000   0.000
 -0.000   0.000  -0.000  -4.598   0.000  -0.000   0.002   0.000
  0.000  -0.000   0.000   0.000  -4.631   0.000   0.000  -0.003
  0.000   0.000  -0.003  -0.000   0.000  -0.776  -0.000   0.000
  0.000   0.000  -0.000   0.002   0.000  -0.000  -0.775   0.000
 -0.000  -0.000   0.000   0.000  -0.003   0.000   0.000  -0.776
 total augmentation occupancy for first ion, spin component:           1
  2.000   0.000   0.000   0.000   0.000   0.000   0.000   0.000
  0.000   0.000   0.000   0.000   0.000   0.000   0.000   0.000
  0.000   0.000   0.667   0.000   0.000   0.000   0.000   0.000
  0.000   0.000   0.000   0.667   0.000   0.000   0.000   0.000
  0.000   0.000   0.000   0.000   0.667   0.000   0.000   0.000
  0.000   0.000   0.000   0.000   0.000   0.000   0.000   0.000
  0.000   0.000   0.000   0.000   0.000   0.000   0.000   0.000
  0.000   0.000   0.000   0.000   0.000   0.000   0.000   0.000


----------------------------------------- Iteration    1(   4)  ---------------------------------------


     EDDAV:  cpu time    0.1520: real time    0.3524
       DOS:  cpu time    0.0040: real time    0.0040
    --------------------------------------------
      LOOP:  cpu time    0.1560: real time    0.3583

 eigenvalue-minimisations  :   168
 total energy-change (2. order) :-0.4352600E-03  (-0.4352597E-03)
 number of electron       8.0000000 magnetization 
 augmentation part        8.0000000 magnetization 

 Free energy of the ion-electron system (eV)
  ---------------------------------------------------
  alpha Z        PSCENC =         5.09113229
  Ewald energy   TEWEN  =       551.10423273
  -Hartree energ DENC   =      -777.03646552
  -exchange      EXHF   =         0.00000000
  -V(xc)+E(xc)   XCENC  =        27.46668014
  PAW double counting   =        75.66288619      -77.96384553
  entropy T*S    EENTRO =        -0.02507505
  eigenvalues    EBANDS =      -117.69948477
  atomic energy  EATOM  =       294.25444774
  Solvation  Ediel_sol  =         0.00000000
  ---------------------------------------------------
  free energy    TOTEN  =       -19.14549178 eV

  energy without entropy =      -19.12041673  energy(sigma->0) =      -19.13713343


--------------------------------------------------------------------------------------------------------




 average (electrostatic) potential at core
  the test charge radii are     0.6991
  (the norm of the test charge is              1.0000)
       1 -62.8955       2 -62.8955
 
 
 
 E-fermi :  -4.9991     XC(G=0):  -3.9368     alpha+bet : -3.1363


 k-point     1 :       0.0000    0.0000    0.0000
  band No.  band energies     occupation 
      1     -25.0232      2.00000
      2     -12.1726      2.00000
      3      -9.4687      2.00000
      4      -9.4672      2.00000
      5       1.2632      0.00000
      6       2.3007      0.00000
      7       2.3012      0.00000
      8       2.5878      0.00000
      9       3.6340      0.00000
     10       5.5814      0.00000
     11       6.3261      0.00000
     12       6.4898      0.00000
     13       7.7069      0.00000
     14      12.5208      0.00000

 k-point     2 :       0.3333    0.0000    0.0000
  band No.  band energies     occupation 
      1     -22.5551      2.00000
      2     -15.5955      2.00000
      3     -12.0136      2.00000
      4      -9.3342      2.00000
      5      -0.2619     -0.00000
      6       1.9559      0.00000
      7       4.7254      0.00000
      8       6.0321      0.00000
      9       7.1839      0.00000
     10       9.7024      0.00000
     11       9.7505      0.00000
     12      10.4093      0.00000
     13      11.1440      0.00000
     14      13.7302      0.00000

 k-point     3 :       0.0000    0.3333    0.0000
  band No.  band energies     occupation 
      1     -22.5551      2.00000
      2     -15.5955      2.00000
      3     -12.0136      2.00000
      4      -9.3342      2.00000
      5      -0.2619     -0.00000
      6       1.9559      0.00000
      7       4.7254      0.00000
      8       6.0321      0.00000
      9       7.1839      0.00000
     10       9.7024      0.00000
     11       9.7499      0.00000
     12      10.4089      0.00000
     13      11.1440      0.00000
     14      13.7299      0.00000

 k-point     4 :       0.3333    0.3333    0.0000
  band No.  band energies     occupation 
      1     -18.4702      2.00000
      2     -18.4699      2.00000
      3     -16.3237      2.00000
      4      -4.9992      1.00123
      5      -4.9989      0.99877
      6       7.2092      0.00000
      7       7.9326      0.00000
      8       7.9330      0.00000
      9       9.8713      0.00000
     10      12.4719      0.00000
     11      12.4737      0.00000
     12      13.1378      0.00000
     13      13.1405      0.00000
     14      13.5244      0.00000

 k-point     5 :      -0.3333    0.3333    0.0000
  band No.  band energies     occupation 
      1     -22.5552      2.00000
      2     -15.5961      2.00000
      3     -12.0127      2.00000
      4      -9.3342      2.00000
      5      -0.2621     -0.00000
      6       1.9558      0.00000
      7       4.7253      0.00000
      8       6.0321      0.00000
      9       7.1839      0.00000
     10       9.7024      0.00000
     11       9.7522      0.00000
     12      10.4080      0.00000
     13      11.1439      0.00000
     14      13.7312      0.00000


--------------------------------------------------------------------------------------------------------


 soft charge-density along one line, spin component           1
         0         1         2         3         4         5         6         7         8         9
 total charge-density along one line
 
 pseudopotential strength for first ion, spin component:           1
 10.479   0.027  -0.000  -0.000   0.000   0.000   0.000  -0.000
  0.027  -0.001   0.000   0.000  -0.000   0.000   0.000  -0.000
 -0.000   0.000  -4.631  -0.000   0.000  -0.003  -0.000   0.000
 -0.000   0.000  -0.000  -4.598   0.000  -0.000   0.002   0.000
  0.000  -0.000   0.000   0.000  -4.631   0.000   0.000  -0.003
  0.000   0.000  -0.003  -0.000   0.000  -0.776  -0.000   0.000
  0.000   0.000  -0.000   0.002   0.000  -0.000  -0.775   0.000
 -0.000  -0.000   0.000   0.000  -0.003   0.000   0.000  -0.776
 total augmentation occupancy for first ion, spin component:           1
  2.000   0.000   0.000   0.000   0.000   0.000   0.000   0.000
  0.000   0.000   0.000   0.000   0.000   0.000   0.000   0.000
  0.000   0.000   0.667   0.000   0.000   0.000   0.000   0.000
  0.000   0.000   0.000   0.667   0.000   0.000   0.000   0.000
  0.000   0.000   0.000   0.000   0.667   0.000   0.000   0.000
  0.000   0.000   0.000   0.000   0.000   0.000   0.000   0.000
  0.000   0.000   0.000   0.000   0.000   0.000   0.000   0.000
  0.000   0.000   0.000   0.000   0.000   0.000   0.000   0.000


----------------------------------------- Iteration    1(   5)  ---------------------------------------


     EDDAV:  cpu time    0.1770: real time    0.3578
       DOS:  cpu time    0.0020: real time    0.0009
    CHARGE:  cpu time    0.0050: real time    0.0140
    MIXING:  cpu time    0.0000: real time    0.0005
    --------------------------------------------
      LOOP:  cpu time    0.1850: real time    0.3755

 eigenvalue-minimisations  :   168
 total energy-change (2. order) :-0.1707633E-05  (-0.1707476E-05)
 number of electron       8.0000000 magnetization 
 augmentation part        0.2143114 magnetization 

 Broyden mixing:
  rms(total) = 0.54815E+00    rms(broyden)= 0.54809E+00
  rms(prec ) = 0.67461E+00
  weight for this iteration     100.00

 Free energy of the ion-electron system (eV)
  ---------------------------------------------------
  alpha Z        PSCENC =         5.09113229
  Ewald energy   TEWEN  =       551.10423273
  -Hartree energ DENC   =      -777.03646552
  -exchange      EXHF   =         0.00000000
  -V(xc)+E(xc)   XCENC  =        27.46668014
  PAW double counting   =        75.66288619      -77.96384553
  entropy T*S    EENTRO =        -0.02507505
  eigenvalues    EBANDS =      -117.69948648
  atomic energy  EATOM  =       294.25444774
  Solvation  Ediel_sol  =         0.00000000
  ---------------------------------------------------
  free energy    TOTEN  =       -19.14549349 eV

  energy without entropy =      -19.12041844  energy(sigma->0) =      -19.13713514


--------------------------------------------------------------------------------------------------------




 average (electrostatic) potential at core
  the test charge radii are     0.6991
  (the norm of the test charge is              1.0000)
       1 -62.8955       2 -62.8955
 
 
 
 E-fermi :  -4.9991     XC(G=0):  -3.9368     alpha+bet : -3.1363


 k-point     1 :       0.0000    0.0000    0.0000
  band No.  band energies     occupation 
      1     -25.0232      2.00000
      2     -12.1726      2.00000
      3      -9.4687      2.00000
      4      -9.4672      2.00000
      5       1.2632      0.00000
      6       2.3007      0.00000
      7       2.3012      0.00000
      8       2.5878      0.00000
      9       3.6340      0.00000
     10       5.5813      0.00000
     11       6.3261      0.00000
     12       6.4898      0.00000
     13       7.7069      0.00000
     14      12.5207      0.00000

 k-point     2 :       0.3333    0.0000    0.0000
  band No.  band energies     occupation 
      1     -22.5551      2.00000
      2     -15.5955      2.00000
      3     -12.0136      2.00000
      4      -9.3342      2.00000
      5      -0.2619     -0.00000
      6       1.9559      0.00000
      7       4.7254      0.00000
      8       6.0321      0.00000
      9       7.1839      0.00000
     10       9.7024      0.00000
     11       9.7499      0.00000
     12      10.4089      0.00000
     13      11.1440      0.00000
     14      13.7299      0.00000

 k-point     3 :       0.0000    0.3333    0.0000
  band No.  band energies     occupation 
      1     -22.5551      2.00000
      2     -15.5955      2.00000
      3     -12.0136      2.00000
      4      -9.3342      2.00000
      5      -0.2619     -0.00000
      6       1.9559      0.00000
      7       4.7254      0.00000
      8       6.0321      0.00000
      9       7.1839      0.00000
     10       9.7024      0.00000
     11       9.7499      0.00000
     12      10.4088      0.00000
     13      11.1440      0.00000
     14      13.7299      0.00000

 k-point     4 :       0.3333    0.3333    0.0000
  band No.  band energies     occupation 
      1     -18.4702      2.00000
      2     -18.4699      2.00000
      3     -16.3237      2.00000
      4      -4.9992      1.00123
      5      -4.9989      0.99877
      6       7.2092      0.00000
      7       7.9325      0.00000
      8       7.9329      0.00000
      9       9.8712      0.00000
     10      12.4717      0.00000
     11      12.4718      0.00000
     12      13.1373      0.00000
     13      13.1375      0.00000
     14      13.5112      0.00000

 k-point     5 :      -0.3333    0.3333    0.0000
  band No.  band energies     occupation 
      1     -22.5552      2.00000
      2     -15.5961      2.00000
      3     -12.0127      2.00000
      4      -9.3342      2.00000
      5      -0.2621     -0.00000
      6       1.9558      0.00000
      7       4.7253      0.00000
      8       6.0321      0.00000
      9       7.1839      0.00000
     10       9.7024      0.00000
     11       9.7507      0.00000
     12      10.4077      0.00000
     13      11.1439      0.00000
     14      13.7300      0.00000


--------------------------------------------------------------------------------------------------------


 soft charge-density along one line, spin component           1
         0         1         2         3         4         5         6         7         8         9
 total charge-density along one line
 
 pseudopotential strength for first ion, spin component:           1
 10.479   0.027  -0.000  -0.000   0.000   0.000   0.000  -0.000
  0.027  -0.001   0.000   0.000  -0.000   0.000   0.000  -0.000
 -0.000   0.000  -4.631  -0.000   0.000  -0.003  -0.000   0.000
 -0.000   0.000  -0.000  -4.598   0.000  -0.000   0.002   0.000
  0.000  -0.000   0.000   0.000  -4.631   0.000   0.000  -0.003
  0.000   0.000  -0.003  -0.000   0.000  -0.776  -0.000   0.000
  0.000   0.000  -0.000   0.002   0.000  -0.000  -0.775   0.000
 -0.000  -0.000   0.000   0.000  -0.003   0.000   0.000  -0.776
 total augmentation occupancy for first ion, spin component:           1
  1.494  -0.938   0.000   0.002  -0.000  -0.000  -0.002   0.000
 -0.938   0.739  -0.000   0.013  -0.000   0.000   0.002  -0.000
  0.000  -0.000   1.289  -0.000  -0.000   0.207  -0.000   0.000
  0.002   0.013  -0.000   1.055   0.000   0.000   0.077   0.000
 -0.000  -0.000  -0.000   0.000   1.289   0.000  -0.000   0.207
 -0.000   0.000   0.207   0.000   0.000   0.039  -0.000   0.000
 -0.002   0.002  -0.000   0.077  -0.000  -0.000   0.008  -0.000
  0.000  -0.000   0.000   0.000   0.207   0.000  -0.000   0.039


----------------------------------------- Iteration    1(   6)  ---------------------------------------


    POTLOK:  cpu time    0.0050: real time    0.0054
    SETDIJ:  cpu time    0.0030: real time    0.0029
     EDDAV:  cpu time    0.1810: real time    0.3268
       DOS:  cpu time    0.0010: real time    0.0006
    CHARGE:  cpu time    0.0090: real time    0.0092
    MIXING:  cpu time    0.0010: real time    0.0005
    --------------------------------------------
      LOOP:  cpu time    0.2010: real time    0.3473

 eigenvalue-minimisations  :   182
 total energy-change (2. order) : 0.8836676E+00  (-0.8470767E-01)
 number of electron       8.0000000 magnetization 
 augmentation part        0.2053135 magnetization 

 Broyden mixing:
  rms(total) = 0.29091E+00    rms(broyden)= 0.29089E+00
  rms(prec ) = 0.36080E+00
  weight for this iteration     100.00

 eigenvalues of (default mixing * dielectric matrix)
  average eigenvalue GAMMA=   2.0615
  2.0615

 Free energy of the ion-electron system (eV)
  ---------------------------------------------------
  alpha Z        PSCENC =         5.09113229
  Ewald energy   TEWEN  =       551.10423273
  -Hartree energ DENC   =      -787.52807172
  -exchange      EXHF   =         0.00000000
  -V(xc)+E(xc)   XCENC  =        27.95895308
  PAW double counting   =       102.23896611     -104.71482912
  entropy T*S    EENTRO =        -0.02507506
  eigenvalues    EBANDS =      -106.64158190
  atomic energy  EATOM  =       294.25444774
  Solvation  Ediel_sol  =         0.00000000
  ---------------------------------------------------
  free energy    TOTEN  =       -18.26182584 eV

  energy without entropy =      -18.23675078  energy(sigma->0) =      -18.25346749


--------------------------------------------------------------------------------------------------------




 average (electrostatic) potential at core
  the test charge radii are     0.6991
  (the norm of the test charge is              1.0000)
       1 -60.5650       2 -60.5650
 
 
 
 E-fermi :  -3.9255     XC(G=0):  -4.1646     alpha+bet : -3.1363


 k-point     1 :       0.0000    0.0000    0.0000
  band No.  band energies     occupation 
      1     -23.6873      2.00000
      2     -11.2534      2.00000
      3      -7.7461      2.00000
      4      -7.7445      2.00000
      5       1.0507     -0.00000
      6       2.2711      0.00000
      7       3.1007      0.00000
      8       3.7695      0.00000
      9       3.7699      0.00000
     10       6.0887      0.00000
     11       6.9327      0.00000
     12       7.3911      0.00000
     13       7.7362      0.00000
     14      12.2565      0.00000

 k-point     2 :       0.3333    0.0000    0.0000
  band No.  band energies     occupation 
      1     -21.1753      2.00000
      2     -14.0775      2.00000
      3     -10.3678      2.00000
      4      -8.3617      2.00000
      5       0.8627     -0.00000
      6       3.2325      0.00000
      7       4.5565      0.00000
      8       5.7628      0.00000
      9       6.6492      0.00000
     10       9.3789      0.00000
     11      10.7932      0.00000
     12      11.4022      0.00000
     13      11.7276      0.00000
     14      13.8447      0.00000

 k-point     3 :       0.0000    0.3333    0.0000
  band No.  band energies     occupation 
      1     -21.1753      2.00000
      2     -14.0775      2.00000
      3     -10.3678      2.00000
      4      -8.3617      2.00000
      5       0.8627     -0.00000
      6       3.2325      0.00000
      7       4.5565      0.00000
      8       5.7628      0.00000
      9       6.6492      0.00000
     10       9.3789      0.00000
     11      10.7932      0.00000
     12      11.4022      0.00000
     13      11.7276      0.00000
     14      13.8447      0.00000

 k-point     4 :       0.3333    0.3333    0.0000
  band No.  band energies     occupation 
      1     -16.9922      2.00000
      2     -16.9920      2.00000
      3     -14.8718      2.00000
      4      -3.9256      1.00110
      5      -3.9253      0.99890
      6       7.4998      0.00000
      7       9.1579      0.00000
      8       9.1583      0.00000
      9      10.3889      0.00000
     10      12.4492      0.00000
     11      12.4504      0.00000
     12      12.8452      0.00000
     13      12.8460      0.00000
     14      13.2112      0.00000

 k-point     5 :      -0.3333    0.3333    0.0000
  band No.  band energies     occupation 
      1     -21.1754      2.00000
      2     -14.0780      2.00000
      3     -10.3669      2.00000
      4      -8.3617      2.00000
      5       0.8625     -0.00000
      6       3.2323      0.00000
      7       4.5565      0.00000
      8       5.7628      0.00000
      9       6.6492      0.00000
     10       9.3789      0.00000
     11      10.7932      0.00000
     12      11.4030      0.00000
     13      11.7265      0.00000
     14      13.8446      0.00000


--------------------------------------------------------------------------------------------------------


 soft charge-density along one line, spin component           1
         0         1         2         3         4         5         6         7         8         9
 total charge-density along one line
 
 pseudopotential strength for first ion, spin component:           1
 10.364   0.023   0.000  -0.000  -0.000  -0.000   0.000   0.000
  0.023  -0.001  -0.000   0.000   0.000  -0.000   0.000   0.000
  0.000  -0.000  -4.487  -0.000   0.000  -0.012  -0.000   0.000
 -0.000   0.000  -0.000  -4.465   0.000  -0.000  -0.008   0.000
 -0.000   0.000   0.000   0.000  -4.487   0.000   0.000  -0.012
 -0.000  -0.000  -0.012  -0.000   0.000  -0.774  -0.000   0.000
  0.000   0.000  -0.000  -0.008   0.000  -0.000  -0.774   0.000
  0.000   0.000   0.000   0.000  -0.012   0.000   0.000  -0.774
 total augmentation occupancy for first ion, spin component:           1
  1.468  -1.059  -0.000   0.003  -0.000  -0.000  -0.002   0.000
 -1.059   0.917  -0.000   0.012   0.000   0.000   0.002   0.000
 -0.000  -0.000   1.257   0.000  -0.000   0.217  -0.000   0.000
  0.003   0.012   0.000   0.995   0.000  -0.000   0.092   0.000
 -0.000   0.000  -0.000   0.000   1.257   0.000  -0.000   0.217
 -0.000   0.000   0.217  -0.000   0.000   0.043  -0.000   0.000
 -0.002   0.002  -0.000   0.092  -0.000  -0.000   0.011  -0.000
  0.000   0.000   0.000   0.000   0.217   0.000  -0.000   0.043


----------------------------------------- Iteration    1(   7)  ---------------------------------------


    POTLOK:  cpu time    0.0050: real time    0.0050
    SETDIJ:  cpu time    0.0030: real time    0.0027
     EDDAV:  cpu time    0.2290: real time    0.3772
       DOS:  cpu time    0.0000: real time    0.0002
    CHARGE:  cpu time    0.0050: real time    0.0049
    MIXING:  cpu time    0.0000: real time    0.0005
    --------------------------------------------
      LOOP:  cpu time    0.2420: real time    0.3925

 eigenvalue-minimisations  :   196
 total energy-change (2. order) : 0.3417331E+00  (-0.1020658E+00)
 number of electron       8.0000000 magnetization 
 augmentation part        0.1954437 magnetization 

 Broyden mixing:
  rms(total) = 0.49744E-01    rms(broyden)= 0.49561E-01
  rms(prec ) = 0.66893E-01
  weight for this iteration     100.00

 eigenvalues of (default mixing * dielectric matrix)
  average eigenvalue GAMMA=   2.2619
  2.1109  2.4129

 Free energy of the ion-electron system (eV)
  ---------------------------------------------------
  alpha Z        PSCENC =         5.09113229
  Ewald energy   TEWEN  =       551.10423273
  -Hartree energ DENC   =      -800.85570602
  -exchange      EXHF   =         0.00000000
  -V(xc)+E(xc)   XCENC  =        28.57517138
  PAW double counting   =       136.44892011     -139.07521402
  entropy T*S    EENTRO =        -0.02507506
  eigenvalues    EBANDS =       -93.43800186
  atomic energy  EATOM  =       294.25444774
  Solvation  Ediel_sol  =         0.00000000
  ---------------------------------------------------
  free energy    TOTEN  =       -17.92009270 eV

  energy without entropy =      -17.89501764  energy(sigma->0) =      -17.91173435


--------------------------------------------------------------------------------------------------------




 average (electrostatic) potential at core
  the test charge radii are     0.6991
  (the norm of the test charge is              1.0000)
       1 -58.0066       2 -58.0063
 
 
 
 E-fermi :  -2.6480     XC(G=0):  -4.1980     alpha+bet : -3.1363


 k-point     1 :       0.0000    0.0000    0.0000
  band No.  band energies     occupation 
      1     -22.0688      2.00000
      2     -10.1358      2.00000
      3      -5.7175      2.00000
      4      -5.7162      2.00000
      5       0.8930     -0.00000
      6       2.0097     -0.00000
      7       2.8872      0.00000
      8       5.5168      0.00000
      9       5.5172      0.00000
     10       5.9547      0.00000
     11       7.1608      0.00000
     12       8.5711      0.00000
     13       9.3858      0.00000
     14      12.1629      0.00000

 k-point     2 :       0.3333    0.0000    0.0000
  band No.  band energies     occupation 
      1     -19.5123      2.00000
      2     -12.2699      2.00000
      3      -8.4222      2.00000
      4      -7.1903      2.00000
      5       2.1845     -0.00000
      6       4.3907      0.00000
      7       4.8333      0.00000
      8       5.5427      0.00000
      9       6.4383      0.00000
     10       9.3053      0.00000
     11      10.6256      0.00000
     12      13.0292      0.00000
     13      13.3332      0.00000
     14      14.1552      0.00000

 k-point     3 :       0.0000    0.3333    0.0000
  band No.  band energies     occupation 
      1     -19.5123      2.00000
      2     -12.2699      2.00000
      3      -8.4222      2.00000
      4      -7.1903      2.00000
      5       2.1845     -0.00000
      6       4.3907      0.00000
      7       4.8333      0.00000
      8       5.5427      0.00000
      9       6.4383      0.00000
     10       9.3053      0.00000
     11      10.6255      0.00000
     12      13.0289      0.00000
     13      13.3332      0.00000
     14      14.1552      0.00000

 k-point     4 :       0.3333    0.3333    0.0000
  band No.  band energies     occupation 
      1     -15.2319      2.00000
      2     -15.2319      2.00000
      3     -13.1210      2.00000
      4      -2.6481      1.00106
      5      -2.6478      0.99894
      6       7.9936      0.00000
      7      10.2657      0.00000
      8      10.2660      0.00000
      9      10.8992      0.00000
     10      12.6019      0.00000
     11      12.6023      0.00000
     12      12.6258      0.00000
     13      12.6259      0.00000
     14      13.1114      0.00000

 k-point     5 :      -0.3333    0.3333    0.0000
  band No.  band energies     occupation 
      1     -19.5124      2.00000
      2     -12.2703      2.00000
      3      -8.4214      2.00000
      4      -7.1902      2.00000
      5       2.1844     -0.00000
      6       4.3907      0.00000
      7       4.8331      0.00000
      8       5.5427      0.00000
      9       6.4383      0.00000
     10       9.3054      0.00000
     11      10.6255      0.00000
     12      13.0282      0.00000
     13      13.3339      0.00000
     14      14.1552      0.00000


--------------------------------------------------------------------------------------------------------


 soft charge-density along one line, spin component           1
         0         1         2         3         4         5         6         7         8         9
 total charge-density along one line
 
 pseudopotential strength for first ion, spin component:           1
 10.225   0.019   0.000  -0.000  -0.000  -0.000   0.000   0.000
  0.019  -0.002  -0.000   0.000   0.000  -0.000   0.000   0.000
  0.000  -0.000  -4.332  -0.000  -0.000  -0.019  -0.000   0.000
 -0.000   0.000  -0.000  -4.325   0.000  -0.000  -0.016   0.000
 -0.000   0.000  -0.000   0.000  -4.332   0.000   0.000  -0.019
 -0.000  -0.000  -0.019  -0.000   0.000  -0.772   0.000  -0.000
  0.000   0.000  -0.000  -0.016   0.000   0.000  -0.772   0.000
  0.000   0.000   0.000   0.000  -0.019  -0.000   0.000  -0.772
 total augmentation occupancy for first ion, spin component:           1
  1.441  -1.161   0.000   0.003   0.000   0.000  -0.002  -0.000
 -1.161   1.090  -0.000   0.010   0.000   0.000   0.003   0.000
  0.000  -0.000   1.224   0.000  -0.000   0.227   0.000   0.000
  0.003   0.010   0.000   0.931  -0.000   0.000   0.107   0.000
  0.000   0.000  -0.000  -0.000   1.224   0.000  -0.000   0.227
  0.000   0.000   0.227   0.000   0.000   0.048   0.000   0.000
 -0.002   0.003   0.000   0.107  -0.000   0.000   0.014  -0.000
 -0.000   0.000   0.000   0.000   0.227   0.000  -0.000   0.048


----------------------------------------- Iteration    1(   8)  ---------------------------------------


    POTLOK:  cpu time    0.0050: real time    0.0049
    SETDIJ:  cpu time    0.0030: real time    0.0026
     EDDAV:  cpu time    0.1750: real time    0.3561
       DOS:  cpu time    0.0020: real time    0.0019
    CHARGE:  cpu time    0.0130: real time    0.0156
    MIXING:  cpu time    0.0010: real time    0.0005
    --------------------------------------------
      LOOP:  cpu time    0.2000: real time    0.3837

 eigenvalue-minimisations  :   210
 total energy-change (2. order) : 0.9785698E-02  (-0.7067505E-03)
 number of electron       8.0000000 magnetization 
 augmentation part        0.1953261 magnetization 

 Broyden mixing:
  rms(total) = 0.74985E-02    rms(broyden)= 0.74449E-02
  rms(prec ) = 0.25916E-01
  weight for this iteration     100.00

 eigenvalues of (default mixing * dielectric matrix)
  average eigenvalue GAMMA=   2.0026
  1.2852  2.6641  2.0585

 Free energy of the ion-electron system (eV)
  ---------------------------------------------------
  alpha Z        PSCENC =         5.09113229
  Ewald energy   TEWEN  =       551.10423273
  -Hartree energ DENC   =      -803.47980369
  -exchange      EXHF   =         0.00000000
  -V(xc)+E(xc)   XCENC  =        28.61786644
  PAW double counting   =       137.92967247     -140.50071760
  entropy T*S    EENTRO =        -0.02507477
  eigenvalues    EBANDS =       -90.90206261
  atomic energy  EATOM  =       294.25444774
  Solvation  Ediel_sol  =         0.00000000
  ---------------------------------------------------
  free energy    TOTEN  =       -17.91030701 eV

  energy without entropy =      -17.88523223  energy(sigma->0) =      -17.90194875


--------------------------------------------------------------------------------------------------------




 average (electrostatic) potential at core
  the test charge radii are     0.6991
  (the norm of the test charge is              1.0000)
       1 -57.8215       2 -57.8234
 
 
 
 E-fermi :  -2.3561     XC(G=0):  -4.1945     alpha+bet : -3.1363


 k-point     1 :       0.0000    0.0000    0.0000
  band No.  band energies     occupation 
      1     -21.7395      2.00000
      2      -9.8407      2.00000
      3      -5.3996      2.00000
      4      -5.3982      2.00000
      5       0.9465     -0.00000
      6       2.0648     -0.00000
      7       2.6936     -0.00000
      8       5.8407      0.00000
      9       5.8411      0.00000
     10       5.8781      0.00000
     11       7.1166      0.00000
     12       8.8614      0.00000
     13       9.6872      0.00000
     14      12.1512      0.00000

 k-point     2 :       0.3333    0.0000    0.0000
  band No.  band energies     occupation 
      1     -19.1846      2.00000
      2     -11.9452      2.00000
      3      -8.1007      2.00000
      4      -6.8964      2.00000
      5       2.4774     -0.00000
      6       4.4752      0.00000
      7       5.1508      0.00000
      8       5.6097      0.00000
      9       6.2400      0.00000
     10       9.2435      0.00000
     11      10.5854      0.00000
     12      13.2916      0.00000
     13      13.6435      0.00000
     14      14.3103      0.00000

 k-point     3 :       0.0000    0.3333    0.0000
  band No.  band energies     occupation 
      1     -19.1846      2.00000
      2     -11.9452      2.00000
      3      -8.1007      2.00000
      4      -6.8964      2.00000
      5       2.4774     -0.00000
      6       4.4752      0.00000
      7       5.1508      0.00000
      8       5.6097      0.00000
      9       6.2400      0.00000
     10       9.2435      0.00000
     11      10.5854      0.00000
     12      13.2916      0.00000
     13      13.6435      0.00000
     14      14.3103      0.00000

 k-point     4 :       0.3333    0.3333    0.0000
  band No.  band energies     occupation 
      1     -14.9111      2.00000
      2     -14.9107      2.00000
      3     -12.7824      2.00000
      4      -2.3565      1.00348
      5      -2.3557      0.99652
      6       8.2988      0.00000
      7      10.4902      0.00000
      8      10.4905      0.00000
      9      11.1353      0.00000
     10      12.5227      0.00000
     11      12.5228      0.00000
     12      12.6897      0.00000
     13      12.6898      0.00000
     14      12.9032      0.00000

 k-point     5 :      -0.3333    0.3333    0.0000
  band No.  band energies     occupation 
      1     -19.1846      2.00000
      2     -11.9456      2.00000
      3      -8.1000      2.00000
      4      -6.8964      2.00000
      5       2.4772     -0.00000
      6       4.4752      0.00000
      7       5.1506      0.00000
      8       5.6097      0.00000
      9       6.2400      0.00000
     10       9.2435      0.00000
     11      10.5854      0.00000
     12      13.2908      0.00000
     13      13.6442      0.00000
     14      14.3104      0.00000


--------------------------------------------------------------------------------------------------------


 soft charge-density along one line, spin component           1
         0         1         2         3         4         5         6         7         8         9
 total charge-density along one line
 
 pseudopotential strength for first ion, spin component:           1
 10.204   0.018  -0.000  -0.000   0.000   0.000   0.000  -0.000
  0.018  -0.002   0.000   0.000   0.000   0.000   0.000  -0.000
 -0.000   0.000  -4.324  -0.000  -0.000  -0.017  -0.000   0.000
 -0.000   0.000  -0.000  -4.319   0.000  -0.000  -0.014   0.000
  0.000   0.000  -0.000   0.000  -4.324   0.000   0.000  -0.017
  0.000   0.000  -0.017  -0.000   0.000  -0.772  -0.000  -0.000
  0.000   0.000  -0.000  -0.014   0.000  -0.000  -0.772   0.000
 -0.000  -0.000   0.000   0.000  -0.017  -0.000   0.000  -0.772
 total augmentation occupancy for first ion, spin component:           1
  1.442  -1.146  -0.000   0.003  -0.000  -0.000  -0.001   0.000
 -1.146   1.068   0.000   0.011   0.000   0.000   0.003  -0.000
 -0.000   0.000   1.225   0.000  -0.000   0.226   0.000   0.000
  0.003   0.011   0.000   0.929   0.000   0.000   0.106  -0.000
 -0.000   0.000  -0.000   0.000   1.225   0.000  -0.000   0.226
 -0.000   0.000   0.226   0.000   0.000   0.048   0.000   0.000
 -0.001   0.003   0.000   0.106  -0.000   0.000   0.014  -0.000
  0.000  -0.000   0.000  -0.000   0.226   0.000  -0.000   0.047


----------------------------------------- Iteration    1(   9)  ---------------------------------------


    POTLOK:  cpu time    0.0040: real time    0.0048
    SETDIJ:  cpu time    0.0040: real time    0.0029
     EDDAV:  cpu time    0.3539: real time    0.5579
       DOS:  cpu time    0.0020: real time    0.0018
    CHARGE:  cpu time    0.0040: real time    0.0042
    MIXING:  cpu time    0.0010: real time    0.0005
    --------------------------------------------
      LOOP:  cpu time    0.3699: real time    0.5742

 eigenvalue-minimisations  :   252
 total energy-change (2. order) : 0.1979397E-02  (-0.1203082E-03)
 number of electron       8.0000000 magnetization 
 augmentation part        0.1950611 magnetization 

 Broyden mixing:
  rms(total) = 0.70075E-02    rms(broyden)= 0.69999E-02
  rms(prec ) = 0.20277E-01
  weight for this iteration     100.00

 eigenvalues of (default mixing * dielectric matrix)
  average eigenvalue GAMMA=   1.7856
  2.7374  2.0919  1.6534  0.6598

 Free energy of the ion-electron system (eV)
  ---------------------------------------------------
  alpha Z        PSCENC =         5.09113229
  Ewald energy   TEWEN  =       551.10423273
  -Hartree energ DENC   =      -804.71386110
  -exchange      EXHF   =         0.00000000
  -V(xc)+E(xc)   XCENC  =        28.64124315
  PAW double counting   =       138.22074175     -140.78972217
  entropy T*S    EENTRO =        -0.02507287
  eigenvalues    EBANDS =       -89.69146914
  atomic energy  EATOM  =       294.25444774
  Solvation  Ediel_sol  =         0.00000000
  ---------------------------------------------------
  free energy    TOTEN  =       -17.90832761 eV

  energy without entropy =      -17.88325474  energy(sigma->0) =      -17.89996999


--------------------------------------------------------------------------------------------------------




 average (electrostatic) potential at core
  the test charge radii are     0.6991
  (the norm of the test charge is              1.0000)
       1 -57.6705       2 -57.6652
 
 
 
 E-fermi :  -2.2150     XC(G=0):  -4.1572     alpha+bet : -3.1363


 k-point     1 :       0.0000    0.0000    0.0000
  band No.  band energies     occupation 
      1     -21.5864      2.00000
      2      -9.7044      2.00000
      3      -5.2412      2.00000
      4      -5.2398      2.00000
      5       0.9811     -0.00000
      6       2.1187     -0.00000
      7       2.6646     -0.00000
      8       5.8803      0.00000
      9       5.9954      0.00000
     10       5.9957      0.00000
     11       7.1653      0.00000
     12       9.0107      0.00000
     13       9.8383      0.00000
     14      12.1920      0.00000

 k-point     2 :       0.3333    0.0000    0.0000
  band No.  band energies     occupation 
      1     -19.0309      2.00000
      2     -11.7895      2.00000
      3      -7.9433      2.00000
      4      -6.7585      2.00000
      5       2.6188     -0.00000
      6       4.5174      0.00000
      7       5.2982      0.00000
      8       5.6654      0.00000
      9       6.2121      0.00000
     10       9.2537      0.00000
     11      10.6349      0.00000
     12      13.4117      0.00000
     13      13.7996      0.00000
     14      14.3841      0.00000

 k-point     3 :       0.0000    0.3333    0.0000
  band No.  band energies     occupation 
      1     -19.0309      2.00000
      2     -11.7895      2.00000
      3      -7.9433      2.00000
      4      -6.7585      2.00000
      5       2.6188     -0.00000
      6       4.5174      0.00000
      7       5.2982      0.00000
      8       5.6654      0.00000
      9       6.2121      0.00000
     10       9.2537      0.00000
     11      10.6349      0.00000
     12      13.4117      0.00000
     13      13.7996      0.00000
     14      14.3841      0.00000

 k-point     4 :       0.3333    0.3333    0.0000
  band No.  band energies     occupation 
      1     -14.7567      2.00000
      2     -14.7559      2.00000
      3     -12.6261      2.00000
      4      -2.2161      1.00920
      5      -2.2139      0.99080
      6       8.4074      0.00000
      7      10.5929      0.00000
      8      10.5936      0.00000
      9      11.2155      0.00000
     10      12.5335      0.00000
     11      12.5338      0.00000
     12      12.7424      0.00000
     13      12.7425      0.00000
     14      12.8847      0.00000

 k-point     5 :      -0.3333    0.3333    0.0000
  band No.  band energies     occupation 
      1     -19.0309      2.00000
      2     -11.7899      2.00000
      3      -7.9425      2.00000
      4      -6.7585      2.00000
      5       2.6186     -0.00000
      6       4.5173      0.00000
      7       5.2980      0.00000
      8       5.6654      0.00000
      9       6.2121      0.00000
     10       9.2537      0.00000
     11      10.6349      0.00000
     12      13.4110      0.00000
     13      13.8003      0.00000
     14      14.3841      0.00000


--------------------------------------------------------------------------------------------------------


 soft charge-density along one line, spin component           1
         0         1         2         3         4         5         6         7         8         9
 total charge-density along one line
 
 pseudopotential strength for first ion, spin component:           1
 10.194   0.018  -0.000  -0.000   0.000   0.000   0.000  -0.000
  0.018  -0.002   0.000   0.000   0.000   0.000   0.000  -0.000
 -0.000   0.000  -4.316  -0.000  -0.000  -0.017  -0.000   0.000
 -0.000   0.000  -0.000  -4.311   0.000  -0.000  -0.014   0.000
  0.000   0.000  -0.000   0.000  -4.316   0.000   0.000  -0.017
  0.000   0.000  -0.017  -0.000   0.000  -0.772  -0.000  -0.000
  0.000   0.000  -0.000  -0.014   0.000  -0.000  -0.772   0.000
 -0.000  -0.000   0.000   0.000  -0.017  -0.000   0.000  -0.772
 total augmentation occupancy for first ion, spin component:           1
  1.442  -1.144   0.000   0.003  -0.000  -0.000  -0.001   0.000
 -1.144   1.065  -0.000   0.011   0.000   0.000   0.003  -0.000
  0.000  -0.000   1.225  -0.000  -0.000   0.226   0.000   0.000
  0.003   0.011  -0.000   0.930   0.000   0.000   0.106  -0.000
 -0.000   0.000  -0.000   0.000   1.225   0.000  -0.000   0.226
 -0.000   0.000   0.226   0.000   0.000   0.048   0.000   0.000
 -0.001   0.003   0.000   0.106  -0.000   0.000   0.014  -0.000
  0.000  -0.000   0.000  -0.000   0.226   0.000  -0.000   0.047


----------------------------------------- Iteration    1(  10)  ---------------------------------------


    POTLOK:  cpu time    0.0050: real time    0.0053
    SETDIJ:  cpu time    0.0030: real time    0.0029
     EDDAV:  cpu time    0.1870: real time    0.3308
       DOS:  cpu time    0.0010: real time    0.0014
    CHARGE:  cpu time    0.0050: real time    0.0051
    MIXING:  cpu time    0.0010: real time    0.0007
    --------------------------------------------
      LOOP:  cpu time    0.2030: real time    0.3485

 eigenvalue-minimisations  :   154
 total energy-change (2. order) : 0.1355491E-02  (-0.2198476E-03)
 number of electron       8.0000000 magnetization 
 augmentation part        0.1948646 magnetization 

 Broyden mixing:
  rms(total) = 0.13590E-01    rms(broyden)= 0.13560E-01
  rms(prec ) = 0.19215E-01
  weight for this iteration     100.00

 eigenvalues of (default mixing * dielectric matrix)
  average eigenvalue GAMMA=   1.9262
  3.7489  2.5267  2.0024  0.9821  0.3709

 Free energy of the ion-electron system (eV)
  ---------------------------------------------------
  alpha Z        PSCENC =         5.09113229
  Ewald energy   TEWEN  =       551.10423273
  -Hartree energ DENC   =      -806.58765453
  -exchange      EXHF   =         0.00000000
  -V(xc)+E(xc)   XCENC  =        28.66282999
  PAW double counting   =       137.52869069     -140.10034821
  entropy T*S    EENTRO =        -0.02498594
  eigenvalues    EBANDS =       -87.83531688
  atomic energy  EATOM  =       294.25444774
  Solvation  Ediel_sol  =         0.00000000
  ---------------------------------------------------
  free energy    TOTEN  =       -17.90697212 eV

  energy without entropy =      -17.88198618  energy(sigma->0) =      -17.89864347


--------------------------------------------------------------------------------------------------------




 average (electrostatic) potential at core
  the test charge radii are     0.6991
  (the norm of the test charge is              1.0000)
       1 -57.4096       2 -57.4435
 
 
 
 E-fermi :  -1.9890     XC(G=0):  -4.0306     alpha+bet : -3.1363


 k-point     1 :       0.0000    0.0000    0.0000
  band No.  band energies     occupation 
      1     -21.3525      2.00000
      2      -9.4846      2.00000
      3      -5.0050      2.00000
      4      -5.0037      2.00000
      5       1.1121     -0.00000
      6       2.3174     -0.00000
      7       2.6636     -0.00000
      8       5.9352      0.00000
      9       6.2309      0.00000
     10       6.2313      0.00000
     11       7.3364      0.00000
     12       9.2451      0.00000
     13      10.0731      0.00000
     14      12.3730      0.00000

 k-point     2 :       0.3333    0.0000    0.0000
  band No.  band energies     occupation 
      1     -18.7966      2.00000
      2     -11.5542      2.00000
      3      -7.7073      2.00000
      4      -6.5366      2.00000
      5       2.8447     -0.00000
      6       4.6568      0.00000
      7       5.5237      0.00000
      8       5.8640      0.00000
      9       6.2121      0.00000
     10       9.3182      0.00000
     11      10.8085      0.00000
     12      13.6150      0.00000
     13      14.0358      0.00000
     14      14.5593      0.00000

 k-point     3 :       0.0000    0.3333    0.0000
  band No.  band energies     occupation 
      1     -18.7966      2.00000
      2     -11.5542      2.00000
      3      -7.7073      2.00000
      4      -6.5366      2.00000
      5       2.8447     -0.00000
      6       4.6568      0.00000
      7       5.5238      0.00000
      8       5.8640      0.00000
      9       6.2121      0.00000
     10       9.3182      0.00000
     11      10.8085      0.00000
     12      13.6150      0.00000
[...]


   POT+DIJ:  cpu time    0.0160: real time    0.0151
    HAMIL1:  cpu time    0.0090: real time    0.0316
    LRDIAG:  cpu time    0.0050: real time    0.0046
    LRDIIS:  cpu time    0.0200: real time    0.0247
    LRDIAG:  cpu time    0.0020: real time    0.0019
    MIXING:  cpu time    0.0010: real time    0.0015
    --------------------------------------------
      LOOP:  cpu time    0.0620: real time    0.0884

 Broyden mixing:
  rms(total) = 0.18618E-05    rms(broyden)= 0.18606E-05
  rms(prec ) = 0.26462E-05
  weight for this iteration     100.00

 eigenvalues of (default mixing * dielectric matrix)
  average eigenvalue GAMMA=   1.4139
  2.8074  2.8074  2.4221  2.0685  1.2191  1.0851  0.9967  0.9491  0.8607  0.2279
  0.1093

 Free energy of the ion-electron system (eV)
  ---------------------------------------------------
  -Hartree energ DENC   =        -0.01376873
  -V(xc)+E(xc)   XCENC  =         0.00108040
  PAW double counting   =         0.01349163       -0.01317843
  entropy T*S    EENTRO =         0.00000000
  eigenvalues    EBANDS =        -0.12640446
  ---------------------------------------------------
  free energy    TOTEN  =        -0.13877960 eV

  energy without entropy =       -0.13877960


----------------------------------------- Iteration    2(  14)  ---------------------------------------


   POT+DIJ:  cpu time    0.0170: real time    0.0166
    HAMIL1:  cpu time    0.0140: real time    0.0374
    LRDIAG:  cpu time    0.0060: real time    0.0057
    LRDIIS:  cpu time    0.0270: real time    0.0339
    LRDIAG:  cpu time    0.0020: real time    0.0025
    MIXING:  cpu time    0.0010: real time    0.0006
    --------------------------------------------
      LOOP:  cpu time    0.0790: real time    0.1094

 Broyden mixing:
  rms(total) = 0.17440E-05    rms(broyden)= 0.17428E-05
  rms(prec ) = 0.24515E-05
  weight for this iteration     100.00

 eigenvalues of (default mixing * dielectric matrix)
  average eigenvalue GAMMA=   1.3685
  2.8098  2.8098  2.4172  2.0589  1.2490  1.1112  0.9950  0.9615  0.8267  0.5108
  0.5108  0.1615

 Free energy of the ion-electron system (eV)
  ---------------------------------------------------
  -Hartree energ DENC   =        -0.01376874
  -V(xc)+E(xc)   XCENC  =         0.00108041
  PAW double counting   =         0.01349169       -0.01317850
  entropy T*S    EENTRO =         0.00000000
  eigenvalues    EBANDS =        -0.12620267
  ---------------------------------------------------
  free energy    TOTEN  =        -0.13857781 eV

  energy without entropy =       -0.13857781


------------------------ aborting loop because EDIFF is reached ----------------------------------------


 change of polarisation eV/A/(eV/A) component  2 :    -0.000     0.260     0.000
 dielectric tensor                  component  2 :    -0.000     1.735     0.001


--------------------------------------------------------------------------------------------------------


    FORLOC:  cpu time    0.0020: real time    0.0004
    FORNL :  cpu time    0.0360: real time    0.4251
    STRESS:  cpu time    0.1470: real time    1.3225
    OFIELD:  cpu time    0.0000: real time    0.0001
    FORLOC:  cpu time    0.0010: real time    0.0003
    FORNL :  cpu time    0.0640: real time    0.4387
    STRESS:  cpu time    0.1270: real time    1.3081
    OFIELD:  cpu time    0.0000: real time    0.0001
    FORNLD:  cpu time    0.1190: real time    1.3757

 PIEZOELECTRIC TENSOR FIELD DIRECTION 2  (e Angst)
 -----------------------------------------------------------------------------
     0.02286 -1.32201 -0.01914           ( -0.00000  0.00000  0.00000)
    -1.32201 -0.02279  0.00034           (  0.00000  0.00000  0.00000)
    -0.01914  0.00034  0.00004           (  0.00000  0.00000  0.00000)

 PIEZOELECTRIC TENSOR FIELD DIRECTION 2  (C/m^2)
 -----------------------------------------------------------------------------
     0.00572 -0.33086 -0.00479
    -0.33086 -0.00570  0.00008
    -0.00479  0.00008  0.00001


      POSITION         DIRECTION 2           BORN EFFECTIVE CHARGE    (rigid.aug.   ionic)
 -----------------------------------------------------------------------------------------
     -1.24097      2.14943      1.70711    -1.36374  0.01251  0.00004 ( -0.09737  4.00000)
     -0.00001      1.43296      1.69297     1.36372 -0.03503  0.00003 ( -0.09737  4.00000)
 -----------------------------------------------------------------------------------------
    total drift (improves with k-points):  -0.00002 -0.02252  0.00007




--------------------------------------------------------------------------------------------------------


 Linear response to external field, progress :
  Direction:   3


----------------------------------------- Iteration    3(   1)  ---------------------------------------


   POT+DIJ:  cpu time    0.0140: real time    0.0139
    HAMIL1:  cpu time    0.0090: real time    0.0378
    LRDIAG:  cpu time    0.0030: real time    0.0029
    LRDIIS:  cpu time    0.0300: real time    0.0367
    LRDIAG:  cpu time    0.0020: real time    0.0020
    --------------------------------------------
      LOOP:  cpu time    0.0580: real time    0.0933

 Free energy of the ion-electron system (eV)
  ---------------------------------------------------
  -Hartree energ DENC   =         0.00000000
  -V(xc)+E(xc)   XCENC  =         0.00000000
  PAW double counting   =         0.00000000        0.00000000
  entropy T*S    EENTRO =         0.00000000
  eigenvalues    EBANDS =        -0.08656036
  ---------------------------------------------------
  free energy    TOTEN  =        -0.08656036 eV

  energy without entropy =       -0.08656036


----------------------------------------- Iteration    3(   2)  ---------------------------------------


   POT+DIJ:  cpu time    0.0190: real time    0.0183
    HAMIL1:  cpu time    0.0120: real time    0.0456
    LRDIAG:  cpu time    0.0030: real time    0.0029
    LRDIIS:  cpu time    0.0220: real time    0.0287
    LRDIAG:  cpu time    0.0070: real time    0.0075
    MIXING:  cpu time    0.0010: real time    0.0003
    --------------------------------------------
      LOOP:  cpu time    0.0690: real time    0.1089

 Broyden mixing:
  rms(total) = 0.48805E-01    rms(broyden)= 0.48799E-01
  rms(prec ) = 0.10690E+00
  weight for this iteration     100.00

 Free energy of the ion-electron system (eV)
  ---------------------------------------------------
  -Hartree energ DENC   =         0.00000000
  -V(xc)+E(xc)   XCENC  =         0.00000000
  PAW double counting   =         0.00000000        0.00000000
  entropy T*S    EENTRO =         0.00000000
  eigenvalues    EBANDS =        -0.08806167
  ---------------------------------------------------
  free energy    TOTEN  =        -0.08806167 eV

  energy without entropy =       -0.08806167


----------------------------------------- Iteration    3(   3)  ---------------------------------------


   POT+DIJ:  cpu time    0.0130: real time    0.0126
    HAMIL1:  cpu time    0.0080: real time    0.0348
    LRDIAG:  cpu time    0.0020: real time    0.0021
    LRDIIS:  cpu time    0.0210: real time    0.0279
    LRDIAG:  cpu time    0.0010: real time    0.0014
    MIXING:  cpu time    0.0000: real time    0.0003
    --------------------------------------------
      LOOP:  cpu time    0.0510: real time    0.0848

 Broyden mixing:
  rms(total) = 0.19186E-01    rms(broyden)= 0.19186E-01
  rms(prec ) = 0.53176E-01
  weight for this iteration     100.00

 eigenvalues of (default mixing * dielectric matrix)
  average eigenvalue GAMMA=   1.3141
  1.3141

 Free energy of the ion-electron system (eV)
  ---------------------------------------------------
  -Hartree energ DENC   =        -0.00616089
  -V(xc)+E(xc)   XCENC  =         0.00016019
  PAW double counting   =         0.00003835       -0.00003830
  entropy T*S    EENTRO =         0.00000000
  eigenvalues    EBANDS =        -0.04654744
  ---------------------------------------------------
  free energy    TOTEN  =        -0.05254809 eV

  energy without entropy =       -0.05254809


----------------------------------------- Iteration    3(   4)  ---------------------------------------


   POT+DIJ:  cpu time    0.0130: real time    0.0129
    HAMIL1:  cpu time    0.0070: real time    0.0367
    LRDIAG:  cpu time    0.0020: real time    0.0021
    LRDIIS:  cpu time    0.0230: real time    0.0264
    LRDIAG:  cpu time    0.0010: real time    0.0013
    MIXING:  cpu time    0.0000: real time    0.0003
    --------------------------------------------
      LOOP:  cpu time    0.0530: real time    0.0872

 Broyden mixing:
  rms(total) = 0.10632E-01    rms(broyden)= 0.10629E-01
  rms(prec ) = 0.23334E-01
  weight for this iteration     100.00

 eigenvalues of (default mixing * dielectric matrix)
  average eigenvalue GAMMA=   1.8661
  1.8661  1.8661

 Free energy of the ion-electron system (eV)
  ---------------------------------------------------
  -Hartree energ DENC   =        -0.01781672
  -V(xc)+E(xc)   XCENC  =         0.00042254
  PAW double counting   =         0.00001004       -0.00000897
  entropy T*S    EENTRO =         0.00000000
  eigenvalues    EBANDS =        -0.02561165
  ---------------------------------------------------
  free energy    TOTEN  =        -0.04300475 eV

  energy without entropy =       -0.04300475


----------------------------------------- Iteration    3(   5)  ---------------------------------------


   POT+DIJ:  cpu time    0.0140: real time    0.0132
    HAMIL1:  cpu time    0.0070: real time    0.0376
    LRDIAG:  cpu time    0.0020: real time    0.0021
    LRDIIS:  cpu time    0.0270: real time    0.0316
    LRDIAG:  cpu time    0.0020: real time    0.0015
    MIXING:  cpu time    0.0010: real time    0.0004
    --------------------------------------------
      LOOP:  cpu time    0.0670: real time    0.1013

 Broyden mixing:
  rms(total) = 0.42199E-02    rms(broyden)= 0.42189E-02
  rms(prec ) = 0.10635E-01
  weight for this iteration     100.00

 eigenvalues of (default mixing * dielectric matrix)
  average eigenvalue GAMMA=   1.8143
  1.2910  2.0759  2.0759

 Free energy of the ion-electron system (eV)
  ---------------------------------------------------
  -Hartree energ DENC   =        -0.02177568
  -V(xc)+E(xc)   XCENC  =         0.00050745
  PAW double counting   =         0.00017926       -0.00017197
  entropy T*S    EENTRO =         0.00000000
  eigenvalues    EBANDS =        -0.02033576
  ---------------------------------------------------
  free energy    TOTEN  =        -0.04159670 eV

  energy without entropy =       -0.04159670


----------------------------------------- Iteration    3(   6)  ---------------------------------------


   POT+DIJ:  cpu time    0.0130: real time    0.0132
    HAMIL1:  cpu time    0.0080: real time    0.0398
    LRDIAG:  cpu time    0.0020: real time    0.0022
    LRDIIS:  cpu time    0.0410: real time    0.0448
    LRDIAG:  cpu time    0.0010: real time    0.0015
    MIXING:  cpu time    0.0000: real time    0.0004
    --------------------------------------------
      LOOP:  cpu time    0.0790: real time    0.1156

 Broyden mixing:
  rms(total) = 0.26467E-02    rms(broyden)= 0.26464E-02
  rms(prec ) = 0.63699E-02
  weight for this iteration     100.00

 eigenvalues of (default mixing * dielectric matrix)
  average eigenvalue GAMMA=   2.3696
  3.6085  3.1614  1.1866  1.5217

 Free energy of the ion-electron system (eV)
  ---------------------------------------------------
  -Hartree energ DENC   =        -0.02254984
  -V(xc)+E(xc)   XCENC  =         0.00048303
  PAW double counting   =         0.00011603       -0.00011158
  entropy T*S    EENTRO =         0.00000000
  eigenvalues    EBANDS =        -0.01891890
  ---------------------------------------------------
  free energy    TOTEN  =        -0.04098126 eV

  energy without entropy =       -0.04098126


----------------------------------------- Iteration    3(   7)  ---------------------------------------


   POT+DIJ:  cpu time    0.0140: real time    0.0133
    HAMIL1:  cpu time    0.0120: real time    0.0387
    LRDIAG:  cpu time    0.0020: real time    0.0021
    LRDIIS:  cpu time    0.0180: real time    0.0243
    LRDIAG:  cpu time    0.0010: real time    0.0013
    MIXING:  cpu time    0.0000: real time    0.0004
    --------------------------------------------
      LOOP:  cpu time    0.0530: real time    0.0858

 Broyden mixing:
  rms(total) = 0.12770E-02    rms(broyden)= 0.12769E-02
  rms(prec ) = 0.23873E-02
  weight for this iteration     100.00

 eigenvalues of (default mixing * dielectric matrix)
  average eigenvalue GAMMA=   2.5529
  4.0653  3.3108  2.6654  1.1691  1.5538

 Free energy of the ion-electron system (eV)
  ---------------------------------------------------
  -Hartree energ DENC   =        -0.02263111
  -V(xc)+E(xc)   XCENC  =         0.00045528
  PAW double counting   =         0.00003824       -0.00003660
  entropy T*S    EENTRO =         0.00000000
  eigenvalues    EBANDS =        -0.01832555
  ---------------------------------------------------
  free energy    TOTEN  =        -0.04049974 eV

  energy without entropy =       -0.04049974


----------------------------------------- Iteration    3(   8)  ---------------------------------------


   POT+DIJ:  cpu time    0.0130: real time    0.0126
    HAMIL1:  cpu time    0.0160: real time    0.0385
    LRDIAG:  cpu time    0.0020: real time    0.0020
    LRDIIS:  cpu time    0.0250: real time    0.0291
    LRDIAG:  cpu time    0.0020: real time    0.0018
    MIXING:  cpu time    0.0010: real time    0.0008
    --------------------------------------------
      LOOP:  cpu time    0.0720: real time    0.0993

 Broyden mixing:
  rms(total) = 0.47923E-03    rms(broyden)= 0.47919E-03
  rms(prec ) = 0.10469E-02
  weight for this iteration     100.00

 eigenvalues of (default mixing * dielectric matrix)
  average eigenvalue GAMMA=   2.8050
  7.1346  3.4408  2.6328  1.5715  1.1666  0.8837

 Free energy of the ion-electron system (eV)
  ---------------------------------------------------
  -Hartree energ DENC   =        -0.02285006
  -V(xc)+E(xc)   XCENC  =         0.00043080
  PAW double counting   =         0.00005499       -0.00005258
  entropy T*S    EENTRO =         0.00000000
  eigenvalues    EBANDS =        -0.01814398
  ---------------------------------------------------
  free energy    TOTEN  =        -0.04056083 eV

  energy without entropy =       -0.04056083


------------------------ aborting loop because EDIFF is reached ----------------------------------------


 change of polarisation eV/A/(eV/A) component  3 :    -0.000     0.000     0.074
 dielectric tensor                  component  3 :    -0.000     0.000     1.210


--------------------------------------------------------------------------------------------------------


    FORLOC:  cpu time    0.0000: real time    0.0003
    FORNL :  cpu time    0.0460: real time    0.4059
    STRESS:  cpu time    0.1490: real time    1.1596
    OFIELD:  cpu time    0.0000: real time    0.0001
    FORLOC:  cpu time    0.0010: real time    0.0004
    FORNL :  cpu time    0.0500: real time    0.3882
    STRESS:  cpu time    0.1460: real time    1.2335
    OFIELD:  cpu time    0.0000: real time    0.0001
    FORNLD:  cpu time    0.1800: real time    1.6610

 PIEZOELECTRIC TENSOR FIELD DIRECTION 3  (e Angst)
 -----------------------------------------------------------------------------
     0.00067 -0.00099 -0.00001           ( -0.00000  0.00000 -0.00000)
    -0.00099 -0.00067 -0.00011           (  0.00000 -0.00000 -0.00001)
    -0.00001 -0.00011  0.00000           ( -0.00000 -0.00001 -0.00000)

 PIEZOELECTRIC TENSOR FIELD DIRECTION 3  (C/m^2)
 -----------------------------------------------------------------------------
     0.00017 -0.00025 -0.00000
    -0.00025 -0.00017 -0.00003
    -0.00000 -0.00003  0.00000


      POSITION         DIRECTION 3           BORN EFFECTIVE CHARGE    (rigid.aug.   ionic)
 -----------------------------------------------------------------------------------------
     -1.24097      2.14943      1.70711    -0.00103  0.00071 -0.00026 ( -0.09737  4.00000)
     -0.00001      1.43296      1.69297     0.00103 -0.00070 -0.00060 ( -0.09737  4.00000)
 -----------------------------------------------------------------------------------------
    total drift (improves with k-points):  -0.00000  0.00000 -0.00086




--------------------------------------------------------------------------------------------------------




 MACROSCOPIC STATIC DIELECTRIC TENSOR (including local field effects in DFT)
 ------------------------------------------------------
           1.735215    -0.000006    -0.000384
           0.000313     1.735274     0.000262
          -0.000508     0.000519     1.210269
 ------------------------------------------------------



--------------------------------------------------------------------------------------------------------




--------------------------------------------------------------------------------------------------------




 MACROSCOPIC STATIC DIELECTRIC TENSOR (including local field effects in DFT)
 ------------------------------------------------------
           1.735215    -0.000006    -0.000384
           0.000313     1.735274     0.000262
          -0.000508     0.000519     1.210269
 ------------------------------------------------------


 PIEZOELECTRIC TENSOR  for field in x, y, z        (e  Angst)
          XX          YY          ZZ          XY          YZ          ZX
  --------------------------------------------------------------------------------
  x     1.31155    -1.31152     0.00001    -0.02742     0.01899    -0.00039
  y     0.02286    -0.02279     0.00004    -1.32201     0.00034    -0.01914
  z     0.00067    -0.00067     0.00000    -0.00099    -0.00011    -0.00001

 PIEZOELECTRIC TENSOR  for field in x, y, z        (C/m^2)
          XX          YY          ZZ          XY          YZ          ZX
  --------------------------------------------------------------------------------
  x     0.32825    -0.32824     0.00000    -0.00686     0.00475    -0.00010
  y     0.00572    -0.00570     0.00001    -0.33086     0.00008    -0.00479
  z     0.00017    -0.00017     0.00000    -0.00025    -0.00003    -0.00000
 
 BORN EFFECTIVE CHARGES (in e, cummulative output)
 -------------------------------------------------
 ion    1
    1    -0.02826     1.35282     0.00000
    2    -1.36373     0.02377     0.00000
    3    -0.00103     0.00071     0.00017
 ion    2
    1     0.02826    -1.35282    -0.00000
    2     1.36373    -0.02377    -0.00000
    3     0.00103    -0.00071    -0.00017


--------------------------------------------------------------------------------------------------------


     LOOP+:  cpu time    9.5376: real time   30.0863
    4ORBIT:  cpu time    0.0000: real time    0.0000

 total amount of memory used by VASP MPI-rank0    32837. kBytes
=======================================================================

   base      :      30000. kBytes
   nonlr-proj:        208. kBytes
   fftplans  :       1526. kBytes
   grid      :        907. kBytes
   one-center:          6. kBytes
   wavefun   :        190. kBytes
 
  
  
 General timing and accounting informations for this job:
 ========================================================
  
                  Total CPU time used (sec):       10.848
                            User time (sec):        9.758
                          System time (sec):        1.091
                         Elapsed time (sec):       33.593
  
                   Maximum memory used (kb):      298456.
                   Average memory used (kb):           0.
  
                          Minor page faults:        64129
                          Major page faults:            0
                 Voluntary context switches:        13270
