raman                                   
           1
     2.481949    0.000000    0.000000
    -1.240974    2.149431    0.000000
     0.000000    0.000000   12.000000
   C 
   2
Direct configuration=     1
   0.00328338  0.00176573  0.14167004
   0.33004024  0.66489935  0.14167024
