ITEM: TIMESTEP
0
ITEM: NUMBER OF ATOMS
201
ITEM: BOX BOUNDS pp pp pp
0 26
0 26
0 26
ITEM: ATOMS id type x y z vx vy vz 
1 1 7.44 7.536 12.896 0 0 0 
2 1 5.468 11.48 10.924 0 0 0 
3 1 7.44 9.508 10.924 0 0 0 
4 1 7.44 11.48 8.952 0 0 0 
5 1 5.468 9.508 12.896 0 0 0 
6 1 5.468 11.48 14.868 0 0 0 
7 1 7.44 9.508 14.868 0 0 0 
8 1 7.44 11.48 12.896 0 0 0 
9 1 7.44 11.48 16.84 0 0 0 
10 1 7.44 13.452 6.98 0 0 0 
11 1 5.468 13.452 8.952 0 0 0 
12 1 5.468 15.424 10.924 0 0 0 
13 1 7.44 13.452 10.924 0 0 0 
14 1 7.44 15.424 8.952 0 0 0 
15 1 5.468 13.452 12.896 0 0 0 
16 1 5.468 15.424 14.868 0 0 0 
17 1 7.44 13.452 14.868 0 0 0 
18 1 7.44 15.424 12.896 0 0 0 
19 1 5.468 13.452 16.84 0 0 0 
20 1 7.44 13.452 18.812 0 0 0 
21 1 7.44 15.424 16.84 0 0 0 
22 1 7.44 17.396 10.924 0 0 0 
23 1 5.468 17.396 12.896 0 0 0 
24 1 7.44 17.396 14.868 0 0 0 
25 1 7.44 19.368 12.896 0 0 0 
26 1 9.412 7.536 10.924 0 0 0 
27 1 11.384 5.564 10.924 0 0 0 
28 1 11.384 7.536 8.952 0 0 0 
29 1 9.412 5.564 12.896 0 0 0 
30 1 9.412 7.536 14.868 0 0 0 
31 1 11.384 5.564 14.868 0 0 0 
32 1 11.384 7.536 12.896 0 0 0 
33 1 11.384 7.536 16.84 0 0 0 
34 1 9.412 11.48 6.98 0 0 0 
35 1 11.384 9.508 6.98 0 0 0 
36 1 11.384 11.48 5.008 0 0 0 
37 1 9.412 9.508 8.952 0 0 0 
38 1 9.412 11.48 10.924 0 0 0 
39 1 11.384 9.508 10.924 0 0 0 
40 1 11.384 11.48 8.952 0 0 0 
41 1 9.412 9.508 12.896 0 0 0 
42 1 9.412 11.48 14.868 0 0 0 
43 1 11.384 9.508 14.868 0 0 0 
44 1 11.384 11.48 12.896 0 0 0 
45 1 9.412 9.508 16.84 0 0 0 
46 1 9.412 11.48 18.812 0 0 0 
47 1 11.384 9.508 18.812 0 0 0 
48 1 11.384 11.48 16.84 0 0 0 
49 1 11.384 11.48 20.784 0 0 0 
50 1 9.412 13.452 5.008 0 0 0 
51 1 9.412 15.424 6.98 0 0 0 
52 1 11.384 13.452 6.98 0 0 0 
53 1 11.384 15.424 5.008 0 0 0 
54 1 9.412 13.452 8.952 0 0 0 
55 1 9.412 15.424 10.924 0 0 0 
56 1 11.384 13.452 10.924 0 0 0 
57 1 11.384 15.424 8.952 0 0 0 
58 1 9.412 13.452 12.896 0 0 0 
59 1 9.412 15.424 14.868 0 0 0 
60 1 11.384 13.452 14.868 0 0 0 
61 1 11.384 15.424 12.896 0 0 0 
62 1 9.412 13.452 16.84 0 0 0 
63 1 9.412 15.424 18.812 0 0 0 
64 1 11.384 13.452 18.812 0 0 0 
65 1 11.384 15.424 16.84 0 0 0 
66 1 9.412 13.452 20.784 0 0 0 
67 1 11.384 15.424 20.784 0 0 0 
68 1 11.384 17.396 6.98 0 0 0 
69 1 9.412 17.396 8.952 0 0 0 
70 1 9.412 19.368 10.924 0 0 0 
71 1 11.384 17.396 10.924 0 0 0 
72 1 11.384 19.368 8.952 0 0 0 
73 1 9.412 17.396 12.896 0 0 0 
74 1 9.412 19.368 14.868 0 0 0 
75 1 11.384 17.396 14.868 0 0 0 
76 1 11.384 19.368 12.896 0 0 0 
77 1 9.412 17.396 16.84 0 0 0 
78 1 11.384 17.396 18.812 0 0 0 
79 1 11.384 19.368 16.84 0 0 0 
80 1 11.384 21.34 10.924 0 0 0 
81 1 9.412 21.34 12.896 0 0 0 
82 1 11.384 21.34 14.868 0 0 0 
83 1 13.356 7.536 6.98 0 0 0 
84 1 13.356 5.564 8.952 0 0 0 
85 1 13.356 7.536 10.924 0 0 0 
86 1 15.328 5.564 10.924 0 0 0 
87 1 15.328 7.536 8.952 0 0 0 
88 1 13.356 5.564 12.896 0 0 0 
89 1 13.356 7.536 14.868 0 0 0 
90 1 15.328 5.564 14.868 0 0 0 
91 1 15.328 7.536 12.896 0 0 0 
92 1 13.356 5.564 16.84 0 0 0 
93 1 13.356 7.536 18.812 0 0 0 
94 1 15.328 7.536 16.84 0 0 0 
95 1 13.356 9.508 5.008 0 0 0 
96 1 13.356 11.48 6.98 0 0 0 
97 1 15.328 9.508 6.98 0 0 0 
98 1 15.328 11.48 5.008 0 0 0 
99 1 13.356 9.508 8.952 0 0 0 
100 1 13.356 11.48 10.924 0 0 0 
101 1 15.328 9.508 10.924 0 0 0 
102 1 15.328 11.48 8.952 0 0 0 
103 1 13.356 9.508 12.896 0 0 0 
104 1 13.356 11.48 14.868 0 0 0 
105 1 15.328 9.508 14.868 0 0 0 
106 1 15.328 11.48 12.896 0 0 0 
107 1 13.356 9.508 16.84 0 0 0 
108 1 13.356 11.48 18.812 0 0 0 
109 1 15.328 9.508 18.812 0 0 0 
110 1 15.328 11.48 16.84 0 0 0 
111 1 13.356 9.508 20.784 0 0 0 
112 1 15.328 11.48 20.784 0 0 0 
113 1 13.356 13.452 5.008 0 0 0 
114 1 13.356 15.424 6.98 0 0 0 
115 1 15.328 13.452 6.98 0 0 0 
116 1 15.328 15.424 5.008 0 0 0 
117 1 13.356 13.452 8.952 0 0 0 
118 1 13.356 15.424 10.924 0 0 0 
119 1 15.328 13.452 10.924 0 0 0 
120 1 15.328 15.424 8.952 0 0 0 
121 1 13.356 13.452 12.896 0 0 0 
122 1 13.356 15.424 14.868 0 0 0 
123 1 15.328 13.452 14.868 0 0 0 
124 1 15.328 15.424 12.896 0 0 0 
125 1 13.356 13.452 16.84 0 0 0 
126 1 13.356 15.424 18.812 0 0 0 
127 1 15.328 13.452 18.812 0 0 0 
128 1 15.328 15.424 16.84 0 0 0 
129 1 13.356 13.452 20.784 0 0 0 
130 1 15.328 15.424 20.784 0 0 0 
131 1 13.356 17.396 5.008 0 0 0 
132 1 13.356 19.368 6.98 0 0 0 
133 1 15.328 17.396 6.98 0 0 0 
134 1 13.356 17.396 8.952 0 0 0 
135 1 13.356 19.368 10.924 0 0 0 
136 1 15.328 17.396 10.924 0 0 0 
137 1 15.328 19.368 8.952 0 0 0 
138 1 13.356 17.396 12.896 0 0 0 
139 1 13.356 19.368 14.868 0 0 0 
140 1 15.328 17.396 14.868 0 0 0 
141 1 15.328 19.368 12.896 0 0 0 
142 1 13.356 17.396 16.84 0 0 0 
143 1 13.356 19.368 18.812 0 0 0 
144 1 15.328 17.396 18.812 0 0 0 
145 1 15.328 19.368 16.84 0 0 0 
146 1 13.356 17.396 20.784 0 0 0 
147 1 13.356 21.34 8.952 0 0 0 
148 1 15.328 21.34 10.924 0 0 0 
149 1 13.356 21.34 12.896 0 0 0 
150 1 15.328 21.34 14.868 0 0 0 
151 1 13.356 21.34 16.84 0 0 0 
152 1 17.3 7.536 10.924 0 0 0 
153 1 17.3 5.564 12.896 0 0 0 
154 1 17.3 7.536 14.868 0 0 0 
155 1 19.272 7.536 12.896 0 0 0 
156 1 17.3 11.48 6.98 0 0 0 
157 1 17.3 9.508 8.952 0 0 0 
158 1 17.3 11.48 10.924 0 0 0 
159 1 19.272 9.508 10.924 0 0 0 
160 1 19.272 11.48 8.952 0 0 0 
161 1 17.3 9.508 12.896 0 0 0 
162 1 17.3 11.48 14.868 0 0 0 
163 1 19.272 9.508 14.868 0 0 0 
164 1 19.272 11.48 12.896 0 0 0 
165 1 17.3 9.508 16.84 0 0 0 
166 1 17.3 11.48 18.812 0 0 0 
167 1 19.272 11.48 16.84 0 0 0 
168 1 17.3 13.452 5.008 0 0 0 
169 1 17.3 15.424 6.98 0 0 0 
170 1 19.272 13.452 6.98 0 0 0 
171 1 17.3 13.452 8.952 0 0 0 
172 1 17.3 15.424 10.924 0 0 0 
173 1 19.272 13.452 10.924 0 0 0 
174 1 19.272 15.424 8.952 0 0 0 
175 1 17.3 13.452 12.896 0 0 0 
176 1 17.3 15.424 14.868 0 0 0 
177 1 19.272 13.452 14.868 0 0 0 
178 1 19.272 15.424 12.896 0 0 0 
179 1 17.3 13.452 16.84 0 0 0 
180 1 17.3 15.424 18.812 0 0 0 
181 1 19.272 13.452 18.812 0 0 0 
182 1 19.272 15.424 16.84 0 0 0 
183 1 17.3 13.452 20.784 0 0 0 
184 1 17.3 17.396 8.952 0 0 0 
185 1 17.3 19.368 10.924 0 0 0 
186 1 19.272 17.396 10.924 0 0 0 
187 1 17.3 17.396 12.896 0 0 0 
188 1 17.3 19.368 14.868 0 0 0 
189 1 19.272 17.396 14.868 0 0 0 
190 1 19.272 19.368 12.896 0 0 0 
191 1 17.3 17.396 16.84 0 0 0 
192 1 17.3 21.34 12.896 0 0 0 
193 1 21.244 11.48 10.924 0 0 0 
194 1 21.244 9.508 12.896 0 0 0 
195 1 21.244 11.48 14.868 0 0 0 
196 1 21.244 13.452 8.952 0 0 0 
197 1 21.244 15.424 10.924 0 0 0 
198 1 21.244 13.452 12.896 0 0 0 
199 1 21.244 15.424 14.868 0 0 0 
200 1 21.244 13.452 16.84 0 0 0 
201 1 21.244 17.396 12.896 0 0 0 
