5.000000000000000000e+00 5.000000000000000000e+00 5.402999999999999581e+00 5.000000000000000000e+00 5.759999999999999787e+00 4.799000000000000377e+00 5.000000000000000000e+00 4.240000000000000213e+00 4.799000000000000377e+00
4.995560000000000223e+00 4.972809999999999953e+00 5.396930000000000227e+00 4.982800000000000118e+00 5.921579999999999622e+00 5.187870000000000203e+00 5.088210000000000122e+00 4.513410000000000366e+00 4.507259999999999600e+00
4.991869999999999585e+00 4.948140000000000427e+00 5.374299999999999855e+00 4.971189999999999998e+00 5.903080000000000105e+00 5.634680000000000355e+00 5.158879999999999910e+00 4.926660000000000039e+00 4.422460000000000058e+00
4.988059999999999938e+00 4.937490000000000379e+00 5.344190000000000218e+00 4.976250000000000284e+00 5.604860000000000397e+00 6.022310000000000052e+00 5.214830000000000076e+00 5.395360000000000156e+00 4.516720000000000290e+00
4.987829999999999764e+00 4.941499999999999559e+00 5.312079999999999913e+00 4.985520000000000174e+00 5.179940000000000211e+00 6.256319999999999659e+00 5.209130000000000038e+00 5.756109999999999616e+00 4.796330000000000204e+00
4.991649999999999920e+00 4.961850000000000094e+00 5.285529999999999617e+00 4.998890000000000278e+00 4.693850000000000300e+00 6.248940000000000161e+00 5.134710000000000107e+00 5.916520000000000223e+00 5.228650000000000020e+00
4.997799999999999798e+00 4.988209999999999589e+00 5.274869999999999948e+00 5.010469999999999757e+00 4.325529999999999653e+00 5.944899999999999629e+00 5.024740000000000428e+00 5.863150000000000084e+00 5.703109999999999680e+00
5.004640000000000200e+00 5.020109999999999850e+00 5.276799999999999713e+00 5.015380000000000393e+00 4.087869999999999671e+00 5.566790000000000127e+00 4.910449999999999982e+00 5.590340000000000309e+00 6.050440000000000040e+00
5.010819999999999830e+00 5.047390000000000043e+00 5.294870000000000410e+00 5.016409999999999592e+00 4.085060000000000358e+00 5.078809999999999825e+00 4.810500000000000220e+00 5.156620000000000203e+00 6.249299999999999855e+00
5.013449999999999740e+00 5.059490000000000265e+00 5.323080000000000034e+00 5.017960000000000420e+00 4.360520000000000174e+00 4.682649999999999757e+00 4.766770000000000174e+00 4.687590000000000146e+00 6.194069999999999965e+00
5.011059999999999626e+00 5.057979999999999698e+00 5.356539999999999857e+00 5.017820000000000391e+00 4.754170000000000229e+00 4.428279999999999994e+00 4.805150000000000254e+00 4.318220000000000169e+00 5.913109999999999644e+00
5.006280000000000285e+00 5.044179999999999886e+00 5.382069999999999688e+00 5.006929999999999659e+00 5.229680000000000106e+00 4.422519999999999563e+00 4.892559999999999576e+00 4.063369999999999926e+00 5.510320000000000107e+00
5.000289999999999679e+00 5.019580000000000375e+00 5.396980000000000111e+00 4.989980000000000082e+00 5.594490000000000407e+00 4.622049999999999770e+00 5.005410000000000359e+00 4.092259999999999565e+00 5.072309999999999874e+00
4.993719999999999715e+00 4.988129999999999953e+00 5.398119999999999585e+00 4.980610000000000426e+00 5.858120000000000438e+00 4.954629999999999868e+00 5.119810000000000194e+00 4.331800000000000317e+00 4.721379999999999910e+00
4.986399999999999721e+00 4.962489999999999846e+00 5.388370000000000104e+00 4.988999999999999879e+00 5.930740000000000123e+00 5.368829999999999991e+00 5.228570000000000384e+00 4.669349999999999667e+00 4.463260000000000005e+00
4.981390000000000207e+00 4.941019999999999968e+00 5.361369999999999969e+00 5.006960000000000299e+00 5.819930000000000270e+00 5.813659999999999606e+00 5.290829999999999700e+00 5.123800000000000132e+00 4.450450000000000017e+00
4.980299999999999727e+00 4.937920000000000087e+00 5.326810000000000045e+00 5.017129999999999868e+00 5.436919999999999753e+00 6.152529999999999610e+00 5.298079999999999679e+00 5.556370000000000253e+00 4.664500000000000313e+00
4.983950000000000102e+00 4.947119999999999962e+00 5.296750000000000291e+00 5.011560000000000237e+00 4.976289999999999658e+00 6.260849999999999582e+00 5.245169999999999888e+00 5.869790000000000063e+00 5.037180000000000213e+00
4.993619999999999948e+00 4.972480000000000011e+00 5.272439999999999571e+00 4.994449999999999612e+00 4.530680000000000263e+00 6.175699999999999967e+00 5.107709999999999972e+00 5.909659999999999691e+00 5.511260000000000048e+00
5.005690000000000417e+00 5.004249999999999865e+00 5.268189999999999706e+00 4.976259999999999906e+00 4.221510000000000318e+00 5.818349999999999689e+00 4.932739999999999903e+00 5.710560000000000080e+00 5.936659999999999826e+00
5.015920000000000378e+00 5.036900000000000155e+00 5.279790000000000205e+00 4.966619999999999813e+00 4.076459999999999972e+00 5.389380000000000059e+00 4.778579999999999828e+00 5.333059999999999690e+00 6.179940000000000211e+00
5.021239999999999704e+00 5.062100000000000044e+00 5.310120000000000395e+00 4.975340000000000096e+00 4.156559999999999810e+00 4.881949999999999790e+00 4.684820000000000206e+00 4.849849999999999994e+00 6.202060000000000350e+00
5.019770000000000287e+00 5.066480000000000317e+00 5.343040000000000234e+00 5.006789999999999630e+00 4.524399999999999977e+00 4.553880000000000372e+00 4.676929999999999588e+00 4.411880000000000024e+00 6.003409999999999691e+00
5.011989999999999945e+00 5.054759999999999920e+00 5.376159999999999606e+00 5.034379999999999633e+00 4.966800000000000104e+00 4.407309999999999839e+00 4.773799999999999599e+00 4.157029999999999781e+00 5.620190000000000019e+00
5.002449999999999619e+00 5.031830000000000247e+00 5.399169999999999803e+00 5.034299999999999997e+00 5.418919999999999959e+00 4.492020000000000124e+00 4.926569999999999894e+00 4.071810000000000151e+00 5.167220000000000368e+00
4.993000000000000327e+00 5.002860000000000085e+00 5.405310000000000059e+00 5.017179999999999751e+00 5.731040000000000134e+00 4.771939999999999849e+00 5.094899999999999984e+00 4.223220000000000418e+00 4.789039999999999964e+00
4.984280000000000044e+00 4.967859999999999943e+00 5.394619999999999749e+00 5.003129999999999633e+00 5.923849999999999838e+00 5.168050000000000033e+00 5.248409999999999798e+00 4.590349999999999930e+00 4.564090000000000202e+00
4.976860000000000284e+00 4.945389999999999731e+00 5.371629999999999683e+00 4.993059999999999832e+00 5.875919999999999810e+00 5.640469999999999651e+00 5.377119999999999678e+00 4.997869999999999813e+00 4.459480000000000111e+00
4.974689999999999834e+00 4.936589999999999812e+00 5.336780000000000079e+00 4.989259999999999806e+00 5.592579999999999885e+00 6.066469999999999807e+00 5.415639999999999787e+00 5.421969999999999956e+00 4.591009999999999813e+00
4.979239999999999888e+00 4.946010000000000240e+00 5.302319999999999922e+00 4.996050000000000324e+00 5.104230000000000267e+00 6.261459999999999582e+00 5.336070000000000313e+00 5.759570000000000078e+00 4.947350000000000136e+00
4.988430000000000142e+00 4.964719999999999800e+00 5.280780000000000030e+00 5.002419999999999867e+00 4.630119999999999791e+00 6.174999999999999822e+00 5.182629999999999626e+00 5.934389999999999610e+00 5.378569999999999851e+00
5.002130000000000187e+00 4.998319999999999652e+00 5.268880000000000230e+00 5.011589999999999989e+00 4.236089999999999911e+00 5.917650000000000077e+00 4.954410000000000203e+00 5.790840000000000209e+00 5.826220000000000176e+00
5.014809999999999768e+00 5.028450000000000308e+00 5.279349999999999987e+00 5.014920000000000044e+00 4.084780000000000300e+00 5.469089999999999563e+00 4.748039999999999594e+00 5.460069999999999979e+00 6.107370000000000410e+00
5.023139999999999716e+00 5.050880000000000258e+00 5.305119999999999614e+00 5.026570000000000427e+00 4.158769999999999634e+00 4.975469999999999615e+00 4.603229999999999933e+00 5.027169999999999916e+00 6.188649999999999984e+00
5.024020000000000152e+00 5.060159999999999769e+00 5.342030000000000278e+00 5.041360000000000063e+00 4.473410000000000331e+00 4.530260000000000176e+00 4.574340000000000295e+00 4.564070000000000071e+00 6.043269999999999698e+00
5.019090000000000273e+00 5.051160000000000316e+00 5.368149999999999977e+00 5.035309999999999953e+00 4.969920000000000115e+00 4.412740000000000329e+00 4.659250000000000114e+00 4.211549999999999905e+00 5.742910000000000181e+00
5.010139999999999816e+00 5.031380000000000408e+00 5.388460000000000250e+00 4.993400000000000283e+00 5.413490000000000357e+00 4.511379999999999946e+00 4.844369999999999621e+00 4.084360000000000213e+00 5.319200000000000372e+00
4.999530000000000030e+00 5.003879999999999661e+00 5.399320000000000341e+00 4.939739999999999576e+00 5.761330000000000062e+00 4.766300000000000203e+00 5.067829999999999835e+00 4.176510000000000389e+00 4.890640000000000320e+00
4.988870000000000360e+00 4.977240000000000109e+00 5.393959999999999866e+00 4.906589999999999563e+00 5.904279999999999973e+00 5.153520000000000323e+00 5.271550000000000402e+00 4.459859999999999935e+00 4.589080000000000048e+00
4.981180000000000163e+00 4.950140000000000207e+00 5.367820000000000036e+00 4.896720000000000184e+00 5.886370000000000324e+00 5.634870000000000267e+00 5.404399999999999871e+00 4.911430000000000184e+00 4.526019999999999932e+00
4.975799999999999557e+00 4.941469999999999807e+00 5.336859999999999715e+00 4.910619999999999763e+00 5.589680000000000426e+00 6.056899999999999729e+00 5.476549999999999585e+00 5.346840000000000259e+00 4.599359999999999893e+00
4.976060000000000372e+00 4.948030000000000150e+00 5.306309999999999860e+00 4.949160000000000004e+00 5.106370000000000076e+00 6.265600000000000058e+00 5.433830000000000382e+00 5.725130000000000052e+00 4.879419999999999646e+00
4.983539999999999637e+00 4.970589999999999620e+00 5.282499999999999751e+00 5.016840000000000188e+00 4.593379999999999797e+00 6.185349999999999682e+00 5.246590000000000309e+00 5.877229999999999954e+00 5.340589999999999726e+00
4.993079999999999963e+00 4.994340000000000224e+00 5.272170000000000023e+00 5.082830000000000403e+00 4.270909999999999762e+00 5.888279999999999959e+00 5.027879999999999683e+00 5.819580000000000197e+00 5.802970000000000184e+00
5.004620000000000068e+00 5.029729999999999812e+00 5.277529999999999610e+00 5.141130000000000422e+00 4.062229999999999563e+00 5.481860000000000177e+00 4.784930000000000128e+00 5.462019999999999875e+00 6.123730000000000118e+00
5.013569999999999638e+00 5.055550000000000210e+00 5.302990000000000315e+00 5.162759999999999572e+00 4.128040000000000376e+00 5.020669999999999966e+00 4.620160000000000267e+00 4.983220000000000205e+00 6.177570000000000228e+00
5.018369999999999997e+00 5.063659999999999606e+00 5.337519999999999598e+00 5.158699999999999619e+00 4.447250000000000369e+00 4.629760000000000097e+00 4.547380000000000422e+00 4.534220000000000361e+00 6.015889999999999738e+00
5.015500000000000291e+00 5.053149999999999586e+00 5.374839999999999840e+00 5.137760000000000105e+00 4.928219999999999601e+00 4.384000000000000341e+00 4.614169999999999661e+00 4.221390000000000420e+00 5.664570000000000327e+00
5.010679999999999801e+00 5.032759999999999678e+00 5.395139999999999603e+00 5.061950000000000394e+00 5.384179999999999744e+00 4.483909999999999840e+00 4.767109999999999737e+00 4.091639999999999944e+00 5.239819999999999922e+00
5.003800000000000026e+00 5.003160000000000274e+00 5.403069999999999595e+00 4.957760000000000389e+00 5.726409999999999556e+00 4.762430000000000163e+00 4.981419999999999959e+00 4.222990000000000244e+00 4.834410000000000096e+00
