-1.422859490999999998e+01
-1.420599226999999942e+01
-1.421999126999999952e+01
-1.421782576999999925e+01
-1.421607758999999938e+01
-1.419972062000000079e+01
-1.419854063000000011e+01
-1.421614929000000060e+01
-1.421082941999999960e+01
-1.420404654999999927e+01
-1.420691436000000074e+01
-1.420681626000000009e+01
-1.422148555000000059e+01
-1.421465685000000079e+01
-1.421120649000000036e+01
-1.422386112000000047e+01
-1.422471868000000050e+01
-1.421886628000000030e+01
-1.420431911999999919e+01
-1.421625513000000041e+01
-1.422051508000000020e+01
-1.420278202000000078e+01
-1.420283859000000071e+01
-1.421296264999999970e+01
-1.420850523000000010e+01
-1.420473046000000039e+01
-1.420213992999999952e+01
-1.421215414000000088e+01
-1.421891508000000037e+01
-1.422163154000000063e+01
-1.421234744999999933e+01
-1.421168925999999999e+01
-1.422785870000000052e+01
-1.421513595999999957e+01
-1.420418199999999942e+01
-1.421224815000000063e+01
-1.421385708999999942e+01
-1.421078916999999997e+01
-1.419939193999999993e+01
-1.419860788000000085e+01
-1.421881851000000019e+01
-1.420637287999999998e+01
-1.420648111999999941e+01
-1.421728610000000081e+01
-1.421186576000000024e+01
-1.422644073999999925e+01
-1.421294860999999976e+01
-1.420529480999999983e+01
-1.422492850000000075e+01
-1.422439486000000031e+01
