-6.000000000000000152e-06 -6.000000000000000152e-06 -1.291999999999999963e-03 3.000000000000000076e-06 1.814489999999999992e-01 6.440000000000000412e-04 3.000000000000000076e-06 -1.814429999999999932e-01 6.480000000000000300e-04
1.259119999999999961e-01 -7.880890000000000395e-01 -1.144816000000000056e+00 6.570000000000000319e-03 4.966000000000000275e-02 -9.666800000000000392e-02 -1.324819999999999887e-01 7.384290000000000020e-01 1.241484000000000032e+00
-9.593400000000000538e-02 6.223999999999999533e-01 6.512670000000000403e-01 4.589499999999999830e-02 -7.852470000000000283e-01 -3.853119999999999878e-01 5.003900000000000015e-02 1.628469999999999918e-01 -2.659560000000000257e-01
-8.980000000000000352e-04 -8.842240000000000100e-01 -7.941439999999999610e-01 8.984000000000000666e-03 8.268119999999999914e-01 7.050809999999999578e-01 -8.085999999999999438e-03 5.741199999999999776e-02 8.906300000000000328e-02
1.139649999999999969e-01 3.473229999999999928e-01 -4.772899999999999920e-01 6.006800000000000334e-02 2.161740000000000050e-01 -1.892479999999999996e-01 -1.740329999999999933e-01 -5.634970000000000256e-01 6.665379999999999638e-01
-8.940099999999999436e-02 -8.793539999999999690e-01 8.789160000000000306e-01 4.161399999999999821e-02 6.695140000000000535e-01 -1.203254999999999963e+00 4.778700000000000309e-02 2.098389999999999977e-01 3.243389999999999884e-01
-2.804099999999999995e-02 1.222553000000000001e+00 -1.405539000000000094e+00 2.917200000000000001e-02 -9.100449999999999928e-01 1.283754999999999979e+00 -1.131000000000000061e-03 -3.125069999999999792e-01 1.217840000000000034e-01
6.419099999999999806e-02 -2.652430000000000065e-01 -5.935740000000000460e-01 -3.487200000000000022e-02 3.918690000000000229e-01 2.131139999999999979e-01 -2.931900000000000131e-02 -1.266269999999999896e-01 3.804589999999999916e-01
-1.014199999999999997e-02 -2.561709999999999821e-01 -2.104500000000000121e-02 -7.536800000000000443e-02 6.556830000000000158e-01 4.902139999999999831e-01 8.551000000000000267e-02 -3.995130000000000070e-01 -4.691690000000000027e-01
-1.737400000000000055e-02 1.178320000000000034e+00 1.110357999999999956e+00 -6.932099999999999373e-02 -1.087299999999999933e+00 -6.164990000000000192e-01 8.669499999999999429e-02 -9.102000000000000368e-02 -4.938589999999999924e-01
3.374309999999999810e-01 1.231470000000000065e+00 -8.807220000000000049e-01 -5.906999999999999751e-02 -1.344740000000000102e-01 3.859750000000000125e-01 -2.783599999999999963e-01 -1.096996000000000082e+00 4.947460000000000191e-01
-8.158700000000000674e-02 -7.179119999999999946e-01 2.187649999999999872e-01 -3.760299999999999754e-02 -3.671050000000000146e-01 2.378190000000000026e-01 1.191910000000000053e-01 1.085015999999999980e+00 -4.565839999999999899e-01
7.445000000000000229e-03 -6.068719999999999670e-01 4.034889999999999866e-01 -2.452000000000000186e-03 2.249500000000000111e-02 -3.908639999999999892e-01 -4.993000000000000042e-03 5.843770000000000353e-01 -1.262500000000000080e-02
-1.739590000000000025e-01 9.422040000000000415e-01 9.050789999999999669e-01 2.589800000000000088e-02 -3.149199999999999777e-01 -1.717799999999999883e-02 1.480619999999999992e-01 -6.272839999999999527e-01 -8.879019999999999690e-01
2.624460000000000126e-01 -6.990830000000000100e-01 -9.849869999999999459e-01 3.536399999999999960e-02 1.929680000000000006e-01 -1.447539999999999938e-01 -2.978100000000000191e-01 5.061149999999999816e-01 1.129741000000000106e+00
9.729400000000000548e-02 6.505959999999999521e-01 8.773400000000000643e-02 -6.008000000000000319e-03 -6.380780000000000340e-01 -3.785519999999999996e-01 -9.128600000000000603e-02 -1.251799999999999961e-02 2.908180000000000209e-01
-1.964780000000000137e-01 -5.230740000000000389e-01 1.429870000000000030e-01 -8.750000000000000833e-03 1.445440000000000058e-01 3.456130000000000035e-01 2.052279999999999938e-01 3.785299999999999776e-01 -4.885999999999999788e-01
2.621789999999999954e-01 9.332540000000000280e-01 -6.095840000000000147e-01 -1.408200000000000077e-02 -7.025299999999999601e-02 4.532089999999999730e-01 -2.480970000000000120e-01 -8.630010000000000181e-01 1.563749999999999862e-01
1.874500000000000124e-02 -5.470040000000000457e-01 1.420179999999999998e+00 -1.975299999999999973e-02 4.633249999999999869e-01 -1.280653999999999959e+00 1.007999999999999998e-03 8.367900000000000338e-02 -1.395270000000000121e-01
-9.629999999999999671e-03 7.394030000000000324e-01 -8.895699999999999441e-02 -4.648000000000000222e-03 -8.992010000000000280e-01 3.023799999999999821e-01 1.427800000000000076e-02 1.597979999999999956e-01 -2.134240000000000026e-01
-1.120980000000000032e-01 1.355740000000000001e-01 4.129349999999999965e-01 6.081000000000000294e-02 -3.915150000000000019e-01 -2.486770000000000092e-01 5.128800000000000026e-02 2.559409999999999741e-01 -1.642579999999999874e-01
-1.976749999999999896e-01 -1.445354999999999945e+00 -3.237220000000000097e-01 1.501260000000000094e-01 1.181135000000000046e+00 2.944419999999999815e-01 4.754900000000000099e-02 2.642200000000000104e-01 2.928000000000000047e-02
-3.882120000000000015e-01 -4.448309999999999764e-01 1.193435000000000024e+00 1.155899999999999983e-01 -2.597559999999999869e-01 -9.719640000000000502e-01 2.726219999999999755e-01 7.045860000000000456e-01 -2.214710000000000012e-01
8.933599999999999874e-02 2.892779999999999796e-01 -4.117609999999999881e-01 9.416599999999999970e-02 3.430900000000000061e-01 -1.417760000000000131e-01 -1.835019999999999984e-01 -6.323689999999999589e-01 5.535369999999999457e-01
-5.249800000000000300e-02 -6.639180000000000081e-01 -1.046983999999999915e+00 7.039000000000000118e-03 8.570400000000000240e-02 5.858809999999999851e-01 4.545799999999999841e-02 5.782140000000000057e-01 4.611029999999999851e-01
1.378639999999999866e-01 -1.224515000000000020e+00 -7.343269999999999520e-01 -1.788400000000000059e-02 5.639809999999999546e-01 -1.270060000000000078e-01 -1.199800000000000033e-01 6.605339999999999545e-01 8.613330000000000153e-01
-2.480140000000000122e-01 1.129434999999999967e+00 6.589829999999999854e-01 -1.050610000000000016e-01 -2.712120000000000086e-01 3.968990000000000018e-01 3.530750000000000277e-01 -8.582229999999999581e-01 -1.055881999999999987e+00
5.116669999999999829e-01 3.243999999999999922e-03 -1.176704999999999890e+00 -8.038499999999999812e-02 2.471029999999999893e-01 2.614500000000000157e-01 -4.312819999999999987e-01 -2.503469999999999862e-01 9.152550000000000407e-01
4.331340000000000190e-01 7.486239999999999561e-01 -3.997979999999999867e-01 -3.382799999999999696e-02 -2.716080000000000161e-01 -2.255099999999999882e-01 -3.993059999999999943e-01 -4.770150000000000223e-01 6.253079999999999750e-01
-2.513179999999999858e-01 -5.698600000000000332e-01 3.871800000000000241e-01 -6.228899999999999715e-02 -1.330000000000000071e-01 9.036700000000000288e-02 3.136070000000000246e-01 7.028600000000000403e-01 -4.775469999999999993e-01
1.786800000000000055e-01 1.284577999999999998e+00 -7.943630000000000413e-01 1.115999999999999978e-02 -3.415509999999999935e-01 8.972930000000000073e-01 -1.898400000000000087e-01 -9.430269999999999486e-01 -1.029299999999999937e-01
2.153000000000000053e-02 -1.087587000000000081e+00 6.526499999999999524e-01 -1.403399999999999960e-02 9.860060000000000491e-01 -7.802390000000000159e-01 -7.494999999999999926e-03 1.015810000000000046e-01 1.275890000000000080e-01
2.921699999999999992e-02 5.009789999999999521e-01 -2.146770000000000067e-01 -1.454100000000000011e-02 -4.673570000000000224e-01 1.506170000000000009e-01 -1.467599999999999981e-02 -3.362199999999999911e-02 6.406000000000000583e-02
-7.467600000000000626e-02 1.215373999999999954e+00 5.848360000000000225e-01 -6.484600000000000086e-02 -1.071185000000000054e+00 -2.428530000000000133e-01 1.395220000000000071e-01 -1.441890000000000116e-01 -3.419840000000000102e-01
2.116750000000000020e-01 -3.923659999999999926e-01 -1.153917999999999999e+00 -1.316330000000000000e-01 6.325190000000000534e-01 1.219756999999999980e+00 -8.004200000000000204e-02 -2.401540000000000064e-01 -6.583899999999999475e-02
-1.703010000000000079e-01 -2.696959999999999913e-01 1.150233000000000061e+00 -9.308099999999999707e-02 -3.056780000000000053e-01 -5.993589999999999751e-01 2.633820000000000050e-01 5.753740000000000521e-01 -5.508739999999999748e-01
1.379309999999999981e-01 2.595129999999999937e-01 1.052600999999999898e+00 -6.339200000000000390e-02 2.268999999999999836e-02 -7.527329999999999854e-01 -7.453899999999999415e-02 -2.822029999999999816e-01 -2.998680000000000234e-01
-4.614100000000000146e-02 5.713070000000000093e-01 -9.205900000000000194e-02 6.902099999999999902e-02 -8.694340000000000401e-01 3.005630000000000246e-01 -2.288000000000000103e-02 2.981280000000000041e-01 -2.085039999999999949e-01
3.040849999999999942e-01 -1.327469999999999928e+00 -3.918940000000000201e-01 4.812000000000000305e-02 4.020460000000000145e-01 -4.394910000000000205e-01 -3.522049999999999903e-01 9.254240000000000244e-01 8.313850000000000406e-01
-8.472330000000000139e-01 5.695700000000000068e-02 1.691117999999999899e+00 1.503180000000000072e-01 -2.710949999999999749e-01 -3.291740000000000221e-01 6.969159999999999799e-01 2.141379999999999950e-01 -1.361942999999999904e+00
3.622000000000000219e-02 -2.572869999999999879e-01 -2.997949999999999782e-01 1.510769999999999891e-01 1.855370000000000075e-01 -1.727140000000000064e-01 -1.872969999999999913e-01 7.175099999999999534e-02 4.725090000000000123e-01
3.914960000000000107e-01 5.893920000000000270e-01 -6.730650000000000244e-01 1.366469999999999907e-01 2.405819999999999903e-01 -1.048430000000000056e-01 -5.281420000000000003e-01 -8.299750000000000183e-01 7.779080000000000439e-01
-4.485230000000000050e-01 -1.635054999999999925e+00 2.756799999999999876e-02 4.203599999999999698e-02 3.335139999999999771e-01 -3.107980000000000187e-01 4.064869999999999872e-01 1.301539999999999919e+00 2.832290000000000085e-01
-9.048299999999999399e-02 1.096851000000000020e+00 -5.363550000000000262e-01 9.483999999999999375e-02 -5.985850000000000337e-01 6.952589999999999604e-01 -4.356999999999999762e-03 -4.982659999999999867e-01 -1.589039999999999897e-01
1.481590000000000129e-01 -9.586240000000000316e-01 1.158000000000000002e-01 -1.986880000000000035e-01 1.194226999999999927e+00 -6.861699999999999744e-02 5.052899999999999753e-02 -2.356030000000000069e-01 -4.718300000000000272e-02
2.923760000000000248e-01 -3.262619999999999965e-01 -6.421170000000000488e-01 -6.199500000000000149e-02 3.763880000000000003e-01 1.240689999999999987e-01 -2.303810000000000024e-01 -5.012699999999999795e-02 5.180479999999999530e-01
-4.138580000000000036e-01 5.145100000000000229e-01 1.233680000000000110e+00 2.342720000000000080e-01 -7.877509999999999790e-01 -1.022359999999999935e+00 1.795849999999999946e-01 2.732410000000000116e-01 -2.113200000000000078e-01
2.936509999999999954e-01 6.941400000000000348e-02 -1.506367000000000012e+00 -1.746369999999999867e-01 1.800509999999999888e-01 1.421750999999999987e+00 -1.190139999999999948e-01 -2.494649999999999923e-01 8.461599999999999677e-02
-1.483839999999999881e-01 -5.021740000000000093e-01 -4.377340000000000120e-01 2.912500000000000158e-02 6.989900000000000280e-02 2.158259999999999901e-01 1.192580000000000029e-01 4.322750000000000203e-01 2.219079999999999941e-01
5.616999999999999597e-03 7.085299999999999931e-02 1.803770000000000095e-01 -8.004000000000000697e-03 3.785839999999999761e-01 -8.374500000000000000e-02 2.386999999999999799e-03 -4.494369999999999754e-01 -9.663199999999999568e-02
