-9.019292761231727518e-01 0.000000000000000000e+00 0.000000000000000000e+00 0.000000000000000000e+00 -4.797161498463785589e-01 -6.241509125104133640e-06 0.000000000000000000e+00 -6.241509125104133640e-06 -8.388463433957452642e-01
-9.071284532243844012e-01 5.941292536186624368e-02 1.026166515258370576e-01 5.941292536186624368e-02 -1.042762688022022433e+00 -6.317530706247902472e-01 1.026166515258370576e-01 -6.317530706247902472e-01 -1.885703461403836156e+00
-8.857200769252773220e-01 4.203032244845122944e-02 -6.171604222902966896e-02 4.203032244845122944e-02 -1.544523848098268815e+00 -3.244461273411630153e-01 -6.171604222902966896e-02 -3.244461273411630153e-01 -6.301490027796383675e-01
-8.940025595342905307e-01 1.769467836967021646e-02 -1.765098780579449009e-02 1.769467836967021646e-02 -2.619623794897456004e-01 5.197242233382960430e-01 -1.765098780579449009e-02 5.197242233382960430e-01 -3.509725411228556413e-01
-9.340605650992087616e-01 -9.734257631512405196e-02 1.321452311967047100e-01 -9.734257631512405196e-02 -1.228740935422750313e+00 4.672643391417958258e-01 1.321452311967047100e-01 4.672643391417958258e-01 -1.279721581956600795e+00
-8.865314731115409019e-01 5.490031426441595308e-02 3.879097921252218362e-02 5.490031426441595308e-02 -7.606464755673156830e-01 5.946722649125465443e-01 3.879097921252218362e-02 5.946722649125465443e-01 -1.967117706431694479e+00
-8.928853294008969321e-01 -1.730770480391376209e-02 2.322465545451248004e-02 -1.730770480391376209e-02 -4.210334810521494942e-01 -7.498985968538862679e-01 2.322465545451248004e-02 -7.498985968538862679e-01 7.045415500417545607e-02
-8.918367558678793605e-01 6.978007201866421629e-03 -4.372177142135445088e-02 6.978007201866421629e-03 -1.190056061865354842e+00 3.550170390359230765e-02 -4.372177142135445088e-02 3.550170390359230765e-02 -4.774005499609649261e-01
-9.079211248832727010e-01 8.164518086548717968e-02 6.692146083936650891e-02 8.164518086548717968e-02 -1.458565784427334533e+00 -4.841351383069522618e-01 6.692146083936650891e-02 -4.841351383069522618e-01 -1.339040884681590438e+00
-9.129892302928572789e-01 3.281161347067242801e-02 8.717515795032941550e-02 3.281161347067242801e-02 -4.349707709285070834e-02 6.350860364975957628e-01 8.717515795032941550e-02 6.350860364975957628e-01 -7.927590400159764128e-01
-8.359752491981974343e-01 2.467268557153663722e-01 -1.160608621813113556e-01 2.467268557153663722e-01 1.424936533261273591e-02 -4.981660508201863902e-01 -1.160608621813113556e-01 -4.981660508201863902e-01 -8.370799963133408461e-01
-9.093878795276723048e-01 -1.053753985591330822e-01 5.160479744636097682e-02 -1.053753985591330822e-01 -1.905183211383285835e+00 4.525905511886760269e-01 5.160479744636097682e-02 4.525905511886760269e-01 -1.075774029784698049e+00
-8.997509894385113949e-01 1.217094279395305881e-03 4.768512971579558050e-03 1.217094279395305881e-03 -1.276644517957924441e+00 -2.285390981248129338e-01 4.768512971579558050e-03 -2.285390981248129338e-01 -5.245801174376271137e-01
-8.779743641010231414e-01 -8.684435796669891239e-02 -1.236817448230635025e-01 -8.684435796669891239e-02 -6.090776679732868848e-01 5.717035113321632389e-01 -1.236817448230635025e-01 5.717035113321632389e-01 -2.346869846130405224e-01
-9.648062390494718255e-01 1.133645302392663756e-01 2.368527882794516370e-01 1.133645302392663756e-01 -7.359363409410283330e-01 -4.354326426037647968e-01 2.368527882794516370e-01 -4.354326426037647968e-01 -1.841476127743348012e+00
-9.190622186715835529e-01 -6.953041165366004826e-03 3.787347737113187784e-02 -6.953041165366004826e-03 -1.374829698004937484e+00 -2.461588783849819329e-01 3.787347737113187784e-02 -2.461588783849819329e-01 -1.205872045988368724e+00
-8.220379593218398728e-01 1.583096374491412273e-01 -1.702621274237156312e-01 1.583096374491412273e-01 -5.360395281913182819e-01 -1.321265066693294021e-01 -1.702621274237156312e-01 -1.321265066693294021e-01 -1.487101964147310718e-01
-9.590203600905004011e-01 -1.885435076511456642e-01 4.696111465728349671e-02 -1.885435076511456642e-01 -1.597227151150648172e+00 1.258537899985997521e-01 4.696111465728349671e-02 1.258537899985997521e-01 -3.856940563858098914e-01
-8.979846423561069768e-01 2.572750061367923627e-02 -1.222711637607899748e-02 2.572750061367923627e-02 -8.905946955519836727e-01 4.087127420391939991e-01 -1.222711637607899748e-02 4.087127420391939991e-01 -1.995759991806797418e+00
-8.986587253416182808e-01 1.026104100167119469e-02 -2.296875358038321085e-03 1.026104100167119469e-02 6.260857803391955967e-02 -3.787847057843196086e-01 -2.296875358038321085e-03 -3.787847057843196086e-01 -8.126007975246823944e-01
-9.064606117479984126e-01 -4.644306939989985977e-02 1.718287462141167982e-02 -4.644306939989985977e-02 -3.196027162600822424e-01 2.142023516644487591e-01 1.718287462141167982e-02 2.142023516644487591e-01 -9.880184114857341049e-01
-9.159040150542809844e-01 -1.265216314749858795e-01 -6.718984573174599517e-02 -1.265216314749858795e-01 -1.926635278246268790e+00 -2.342812865199087602e-01 -6.718984573174599517e-02 -2.342812865199087602e-01 -8.756025906334835573e-01
-9.806347061907358942e-01 -2.027366994016324420e-01 5.310900114551107137e-02 -2.027366994016324420e-01 -1.155490584330528092e+00 6.693706461217927561e-01 5.310900114551107137e-02 6.693706461217927561e-01 -1.358838951626420710e-01
-8.472162071325100019e-01 1.911399754471889978e-01 -1.482108756847227427e-01 1.911399754471889978e-01 -2.742768769935760020e-01 -5.098688804297566435e-01 -1.482108756847227427e-01 -5.098688804297566435e-01 -5.030406694468927409e-01
-8.985026876134906137e-01 -2.745015713220797654e-02 -1.906156886806802467e-02 -2.745015713220797654e-02 -1.272325393643352509e+00 -2.362286373669412187e-01 -1.906156886806802467e-02 -2.362286373669412187e-01 -1.440546547583158921e+00
-9.131764755666105238e-01 6.950544561715962799e-02 7.144031344594191368e-02 6.950544561715962799e-02 -8.537510671864940726e-01 -7.565582870903724277e-01 7.144031344594191368e-02 -7.565582870903724277e-01 -1.283123204429782671e+00
-7.988757189585784513e-01 -2.468579274069935547e-01 -3.054032830004703714e-01 -2.468579274069935547e-01 -6.901236639627639224e-01 7.932583607459846586e-01 -3.054032830004703714e-01 7.932583607459846586e-01 -4.141241304506592530e-02
-1.058728468364038777e+00 -9.125086340902242854e-02 3.124187392570874078e-01 -9.125086340902242854e-02 -5.895292613934607351e-01 3.243899537590371196e-01 3.124187392570874078e-01 3.243899537590371196e-01 -1.548530896956585634e+00
-1.054459276122467593e+00 -1.778393195015920691e-01 2.189521401086529928e-01 -1.778393195015920691e-01 -1.244993825184521397e+00 1.705804443890959476e-01 2.189521401086529928e-01 1.705804443890959476e-01 -1.388373772806413609e+00
-7.771115766393402735e-01 2.918092761259935553e-01 -1.863340134208588128e-01 2.918092761259935553e-01 -2.777221900306335312e-01 -3.953371879840957837e-01 -1.863340134208588128e-01 -3.953371879840957837e-01 -5.129709104649333717e-01
-9.292296370363782865e-01 -1.585280902685198834e-01 -1.472996153524575502e-03 -1.585280902685198834e-01 -1.563479311311210207e+00 -4.248595261458383288e-01 -1.472996153524575502e-03 -4.248595261458383288e-01 -2.692587036569922890e-02
-8.974541140804731532e-01 -2.952233816174254771e-03 -1.569739544963689309e-02 -2.952233816174254771e-03 -1.411142798094793482e+00 6.829584114871444234e-01 -1.569739544963689309e-02 6.829584114871444234e-01 -1.263811975196710291e+00
-8.854267259963973791e-01 -7.814369424630374095e-03 -5.169217857411243650e-02 -7.814369424630374095e-03 -3.423779830575872096e-01 -9.185628979415752515e-02 -5.169217857411243650e-02 -9.185628979415752515e-02 -7.485691554102391621e-01
-9.412507836113287452e-01 5.958144610824405579e-02 8.529646370367308106e-02 5.958144610824405579e-02 1.477989360824658871e-01 2.605330739000967233e-01 8.529646370367308106e-02 2.605330739000967233e-01 -1.018757843926872075e+00
-8.449755053565974894e-01 1.532540150578068916e-01 4.949516736207577698e-03 1.532540150578068916e-01 -1.094879289216641904e+00 -6.544159902580432009e-01 4.949516736207577698e-03 -6.544159902580432009e-01 -1.791768749071018796e+00
-9.799855892417249636e-01 -1.642577956453654953e-01 1.672100294615397331e-01 -1.642577956453654953e-01 -1.277462155653313225e+00 4.786488517859857628e-01 1.672100294615397331e-01 4.786488517859857628e-01 -4.037881913394867905e-01
-8.800215790940573157e-01 6.965524183616213227e-02 6.846935510239234024e-02 6.965524183616213227e-02 -4.938781340512398699e-01 -3.706208118486834652e-02 6.846935510239234024e-02 -3.706208118486834652e-02 -1.353970574508839564e-01
-9.057241136712360641e-01 5.755919715171031736e-02 -3.199397577528378944e-02 5.755919715171031736e-02 -1.648407525976501864e+00 3.899632486273811316e-01 -3.199397577528378944e-02 3.899632486273811316e-01 -9.225699467998922376e-01
-9.911766151030366734e-01 1.965513638586542655e-01 2.376017693744641446e-01 1.965513638586542655e-01 -8.649483345569307646e-01 -8.107533108236515407e-01 2.376017693744641446e-01 -8.107533108236515407e-01 -1.386026965375374509e+00
-5.977118798564722280e-01 1.041895118253632901e-01 -6.044402266933344148e-01 1.041895118253632901e-01 -1.060407434318691777e+00 -2.185589250337714173e-01 -6.044402266933344148e-01 -2.185589250337714173e-01 2.491922518197825231e-01
-9.763405479126643360e-01 5.048132580384222245e-02 1.847861191578329676e-01 5.048132580384222245e-02 -6.944053392225854049e-01 1.014619723376928018e-01 1.847861191578329676e-01 1.014619723376928018e-01 -1.243645659213499011e+00
-1.123221982153739917e+00 -3.286029724184823531e-01 3.264558932794465740e-01 -3.286029724184823531e-01 -1.435965279885332846e+00 5.628780174292660199e-01 3.264558932794465740e-01 5.628780174292660199e-01 -1.200129857593272842e+00
-7.797267689627589426e-01 3.878661015613461549e-01 7.251385301545981710e-02 3.878661015613461549e-01 2.682475791787254371e-01 3.374783983943804855e-01 7.251385301545981710e-02 3.374783983943804855e-01 -1.076210935423455473e+00
-8.886847937597017744e-01 -7.537870570388262303e-02 6.763299287962838691e-02 -7.537870570388262303e-02 -7.246704169702153919e-01 -6.331886177235641622e-01 6.763299287962838691e-02 -6.331886177235641622e-01 -4.967305037214124197e-01
-9.262711617110789275e-01 1.795307684744952836e-01 -2.185152344698957153e-02 1.795307684744952836e-01 -2.013298632448339731e+00 6.338876667455757563e-02 -2.185152344698957153e-02 6.338876667455757563e-02 -8.774625603527645978e-01
-7.980518397540647957e-01 6.049894794963436156e-02 -2.441428709375732808e-01 6.049894794963436156e-02 -1.144511769779470001e+00 -1.243807938450751799e-01 -2.441428709375732808e-01 -1.243807938450751799e-01 -3.852821167835530636e-01
-9.236247618420347916e-01 -2.129415668211777080e-01 -1.072977833696651534e-01 -2.129415668211777080e-01 -4.999011903569653414e-01 7.553474343201022068e-01 -1.072977833696651534e-01 7.553474343201022068e-01 -2.010577334469794697e-01
-8.537822747321194283e-01 1.713918405753594998e-01 1.019300855220756086e-01 1.713918405753594998e-01 -6.405598400003120751e-01 -2.635289982801466979e-01 1.019300855220756086e-01 -2.635289982801466979e-01 -2.145549969300171167e+00
-9.208597732996135488e-01 -6.295186103580029113e-02 -4.417116007836194985e-02 -6.295186103580029113e-02 -1.149910675172685082e+00 -1.599261883125432104e-01 -4.417116007836194985e-02 -1.599261883125432104e-01 -1.039011541037834885e+00
-9.009743252270318026e-01 -9.605682543535261006e-03 1.237691259508149656e-02 -9.605682543535261006e-03 -1.321889217605804467e-01 1.062929004005233949e-02 1.237691259508149656e-02 1.062929004005233949e-02 -7.303813978196855849e-01
