# DFF generated LAMMPS data file

1728 atoms
0 bonds
0 angles
0 dihedrals
0 impropers

2  atom types
0  bond types
0  angle types
0  dihedral types
0  improper types

      0.0000      28.8912   xlo xhi
      0.0000      28.8912   ylo yhi
     -0.0000      28.8912   zlo zhi

Masses

           1     40.0780   #   ca0+
           2     15.9994   #   o_

Atoms

           1           1           1     2.00000     0.00000     0.00000    -0.00000	      #     Ca1
           2           2           1     2.00000     0.00000     2.40760     2.40760	      #     Ca2
           3           3           1     2.00000     2.40760     0.00000     2.40760	      #     Ca3
           4           4           1     2.00000     2.40760     2.40760    -0.00000	      #     Ca4
           5           5           2     0.00000     2.40760     2.40760     2.40760	      #     O5
           6           6           2     0.00000     2.40760     0.00000    -0.00000	      #     O6
           7           7           2     0.00000     0.00000     2.40760    -0.00000	      #     O7
           8           8           2     0.00000     0.00000     0.00000     2.40760	      #     O8
           9           9           1     2.00000     4.81520     0.00000    -0.00000	      #     Ca9
          10          10           1     2.00000     4.81520     2.40760     2.40760	      #     Ca10
          11          11           1     2.00000     7.22280     0.00000     2.40760	      #     Ca11
          12          12           1     2.00000     7.22280     2.40760    -0.00000	      #     Ca12
          13          13           2     0.00000     7.22280     2.40760     2.40760	      #     O13
          14          14           2     0.00000     7.22280     0.00000    -0.00000	      #     O14
          15          15           2     0.00000     4.81520     2.40760    -0.00000	      #     O15
          16          16           2     0.00000     4.81520     0.00000     2.40760	      #     O16
          17          17           1     2.00000     9.63040     0.00000    -0.00000	      #     Ca17
          18          18           1     2.00000     9.63040     2.40760     2.40760	      #     Ca18
          19          19           1     2.00000    12.03800     0.00000     2.40760	      #     Ca19
          20          20           1     2.00000    12.03800     2.40760    -0.00000	      #     Ca20
          21          21           2     0.00000    12.03800     2.40760     2.40760	      #     O21
          22          22           2     0.00000    12.03800     0.00000    -0.00000	      #     O22
          23          23           2     0.00000     9.63040     2.40760    -0.00000	      #     O23
          24          24           2     0.00000     9.63040     0.00000     2.40760	      #     O24
          25          25           1     2.00000    14.44560     0.00000    -0.00000	      #     Ca25
          26          26           1     2.00000    14.44560     2.40760     2.40760	      #     Ca26
          27          27           1     2.00000    16.85320     0.00000     2.40760	      #     Ca27
          28          28           1     2.00000    16.85320     2.40760    -0.00000	      #     Ca28
          29          29           2     0.00000    16.85320     2.40760     2.40760	      #     O29
          30          30           2     0.00000    16.85320     0.00000    -0.00000	      #     O30
          31          31           2     0.00000    14.44560     2.40760    -0.00000	      #     O31
          32          32           2     0.00000    14.44560     0.00000     2.40760	      #     O32
          33          33           1     2.00000    19.26080     0.00000    -0.00000	      #     Ca33
          34          34           1     2.00000    19.26080     2.40760     2.40760	      #     Ca34
          35          35           1     2.00000    21.66840     0.00000     2.40760	      #     Ca35
          36          36           1     2.00000    21.66840     2.40760    -0.00000	      #     Ca36
          37          37           2     0.00000    21.66840     2.40760     2.40760	      #     O37
          38          38           2     0.00000    21.66840     0.00000    -0.00000	      #     O38
          39          39           2     0.00000    19.26080     2.40760    -0.00000	      #     O39
          40          40           2     0.00000    19.26080     0.00000     2.40760	      #     O40
          41          41           1     2.00000    24.07600     0.00000    -0.00000	      #     Ca41
          42          42           1     2.00000    24.07600     2.40760     2.40760	      #     Ca42
          43          43           1     2.00000    26.48360     0.00000     2.40760	      #     Ca43
          44          44           1     2.00000    26.48360     2.40760    -0.00000	      #     Ca44
          45          45           2     0.00000    26.48360     2.40760     2.40760	      #     O45
          46          46           2     0.00000    26.48360     0.00000    -0.00000	      #     O46
          47          47           2     0.00000    24.07600     2.40760    -0.00000	      #     O47
          48          48           2     0.00000    24.07600     0.00000     2.40760	      #     O48
          49          49           1     2.00000     0.00000     4.81520    -0.00000	      #     Ca49
          50          50           1     2.00000     0.00000     7.22280     2.40760	      #     Ca50
          51          51           1     2.00000     2.40760     4.81520     2.40760	      #     Ca51
          52          52           1     2.00000     2.40760     7.22280    -0.00000	      #     Ca52
          53          53           2     0.00000     2.40760     7.22280     2.40760	      #     O53
          54          54           2     0.00000     2.40760     4.81520    -0.00000	      #     O54
          55          55           2     0.00000     0.00000     7.22280    -0.00000	      #     O55
          56          56           2     0.00000     0.00000     4.81520     2.40760	      #     O56
          57          57           1     2.00000     4.81520     4.81520    -0.00000	      #     Ca57
          58          58           1     2.00000     4.81520     7.22280     2.40760	      #     Ca58
          59          59           1     2.00000     7.22280     4.81520     2.40760	      #     Ca59
          60          60           1     2.00000     7.22280     7.22280    -0.00000	      #     Ca60
          61          61           2     0.00000     7.22280     7.22280     2.40760	      #     O61
          62          62           2     0.00000     7.22280     4.81520    -0.00000	      #     O62
          63          63           2     0.00000     4.81520     7.22280    -0.00000	      #     O63
          64          64           2     0.00000     4.81520     4.81520     2.40760	      #     O64
          65          65           1     2.00000     9.63040     4.81520    -0.00000	      #     Ca65
          66          66           1     2.00000     9.63040     7.22280     2.40760	      #     Ca66
          67          67           1     2.00000    12.03800     4.81520     2.40760	      #     Ca67
          68          68           1     2.00000    12.03800     7.22280    -0.00000	      #     Ca68
          69          69           2     0.00000    12.03800     7.22280     2.40760	      #     O69
          70          70           2     0.00000    12.03800     4.81520    -0.00000	      #     O70
          71          71           2     0.00000     9.63040     7.22280    -0.00000	      #     O71
          72          72           2     0.00000     9.63040     4.81520     2.40760	      #     O72
          73          73           1     2.00000    14.44560     4.81520    -0.00000	      #     Ca73
          74          74           1     2.00000    14.44560     7.22280     2.40760	      #     Ca74
          75          75           1     2.00000    16.85320     4.81520     2.40760	      #     Ca75
          76          76           1     2.00000    16.85320     7.22280    -0.00000	      #     Ca76
          77          77           2     0.00000    16.85320     7.22280     2.40760	      #     O77
          78          78           2     0.00000    16.85320     4.81520    -0.00000	      #     O78
          79          79           2     0.00000    14.44560     7.22280    -0.00000	      #     O79
          80          80           2     0.00000    14.44560     4.81520     2.40760	      #     O80
          81          81           1     2.00000    19.26080     4.81520    -0.00000	      #     Ca81
          82          82           1     2.00000    19.26080     7.22280     2.40760	      #     Ca82
          83          83           1     2.00000    21.66840     4.81520     2.40760	      #     Ca83
          84          84           1     2.00000    21.66840     7.22280    -0.00000	      #     Ca84
          85          85           2     0.00000    21.66840     7.22280     2.40760	      #     O85
          86          86           2     0.00000    21.66840     4.81520    -0.00000	      #     O86
          87          87           2     0.00000    19.26080     7.22280    -0.00000	      #     O87
          88          88           2     0.00000    19.26080     4.81520     2.40760	      #     O88
          89          89           1     2.00000    24.07600     4.81520    -0.00000	      #     Ca89
          90          90           1     2.00000    24.07600     7.22280     2.40760	      #     Ca90
          91          91           1     2.00000    26.48360     4.81520     2.40760	      #     Ca91
          92          92           1     2.00000    26.48360     7.22280    -0.00000	      #     Ca92
          93          93           2     0.00000    26.48360     7.22280     2.40760	      #     O93
          94          94           2     0.00000    26.48360     4.81520    -0.00000	      #     O94
          95          95           2     0.00000    24.07600     7.22280    -0.00000	      #     O95
          96          96           2     0.00000    24.07600     4.81520     2.40760	      #     O96
          97          97           1     2.00000     0.00000     9.63040    -0.00000	      #     Ca97
          98          98           1     2.00000     0.00000    12.03800     2.40760	      #     Ca98
          99          99           1     2.00000     2.40760     9.63040     2.40760	      #     Ca99
         100         100           1     2.00000     2.40760    12.03800    -0.00000	      #     Ca100
         101         101           2     0.00000     2.40760    12.03800     2.40760	      #     O101
         102         102           2     0.00000     2.40760     9.63040    -0.00000	      #     O102
         103         103           2     0.00000     0.00000    12.03800    -0.00000	      #     O103
         104         104           2     0.00000     0.00000     9.63040     2.40760	      #     O104
         105         105           1     2.00000     4.81520     9.63040    -0.00000	      #     Ca105
         106         106           1     2.00000     4.81520    12.03800     2.40760	      #     Ca106
         107         107           1     2.00000     7.22280     9.63040     2.40760	      #     Ca107
         108         108           1     2.00000     7.22280    12.03800    -0.00000	      #     Ca108
         109         109           2     0.00000     7.22280    12.03800     2.40760	      #     O109
         110         110           2     0.00000     7.22280     9.63040    -0.00000	      #     O110
         111         111           2     0.00000     4.81520    12.03800    -0.00000	      #     O111
         112         112           2     0.00000     4.81520     9.63040     2.40760	      #     O112
         113         113           1     2.00000     9.63040     9.63040    -0.00000	      #     Ca113
         114         114           1     2.00000     9.63040    12.03800     2.40760	      #     Ca114
         115         115           1     2.00000    12.03800     9.63040     2.40760	      #     Ca115
         116         116           1     2.00000    12.03800    12.03800    -0.00000	      #     Ca116
         117         117           2     0.00000    12.03800    12.03800     2.40760	      #     O117
         118         118           2     0.00000    12.03800     9.63040    -0.00000	      #     O118
         119         119           2     0.00000     9.63040    12.03800    -0.00000	      #     O119
         120         120           2     0.00000     9.63040     9.63040     2.40760	      #     O120
         121         121           1     2.00000    14.44560     9.63040    -0.00000	      #     Ca121
         122         122           1     2.00000    14.44560    12.03800     2.40760	      #     Ca122
         123         123           1     2.00000    16.85320     9.63040     2.40760	      #     Ca123
         124         124           1     2.00000    16.85320    12.03800    -0.00000	      #     Ca124
         125         125           2     0.00000    16.85320    12.03800     2.40760	      #     O125
         126         126           2     0.00000    16.85320     9.63040    -0.00000	      #     O126
         127         127           2     0.00000    14.44560    12.03800    -0.00000	      #     O127
         128         128           2     0.00000    14.44560     9.63040     2.40760	      #     O128
         129         129           1     2.00000    19.26080     9.63040    -0.00000	      #     Ca129
         130         130           1     2.00000    19.26080    12.03800     2.40760	      #     Ca130
         131         131           1     2.00000    21.66840     9.63040     2.40760	      #     Ca131
         132         132           1     2.00000    21.66840    12.03800    -0.00000	      #     Ca132
         133         133           2     0.00000    21.66840    12.03800     2.40760	      #     O133
         134         134           2     0.00000    21.66840     9.63040    -0.00000	      #     O134
         135         135           2     0.00000    19.26080    12.03800    -0.00000	      #     O135
         136         136           2     0.00000    19.26080     9.63040     2.40760	      #     O136
         137         137           1     2.00000    24.07600     9.63040    -0.00000	      #     Ca137
         138         138           1     2.00000    24.07600    12.03800     2.40760	      #     Ca138
         139         139           1     2.00000    26.48360     9.63040     2.40760	      #     Ca139
         140         140           1     2.00000    26.48360    12.03800    -0.00000	      #     Ca140
         141         141           2     0.00000    26.48360    12.03800     2.40760	      #     O141
         142         142           2     0.00000    26.48360     9.63040    -0.00000	      #     O142
         143         143           2     0.00000    24.07600    12.03800    -0.00000	      #     O143
         144         144           2     0.00000    24.07600     9.63040     2.40760	      #     O144
         145         145           1     2.00000     0.00000    14.44560    -0.00000	      #     Ca145
         146         146           1     2.00000     0.00000    16.85320     2.40760	      #     Ca146
         147         147           1     2.00000     2.40760    14.44560     2.40760	      #     Ca147
         148         148           1     2.00000     2.40760    16.85320    -0.00000	      #     Ca148
         149         149           2     0.00000     2.40760    16.85320     2.40760	      #     O149
         150         150           2     0.00000     2.40760    14.44560    -0.00000	      #     O150
         151         151           2     0.00000     0.00000    16.85320    -0.00000	      #     O151
         152         152           2     0.00000     0.00000    14.44560     2.40760	      #     O152
         153         153           1     2.00000     4.81520    14.44560    -0.00000	      #     Ca153
         154         154           1     2.00000     4.81520    16.85320     2.40760	      #     Ca154
         155         155           1     2.00000     7.22280    14.44560     2.40760	      #     Ca155
         156         156           1     2.00000     7.22280    16.85320    -0.00000	      #     Ca156
         157         157           2     0.00000     7.22280    16.85320     2.40760	      #     O157
         158         158           2     0.00000     7.22280    14.44560    -0.00000	      #     O158
         159         159           2     0.00000     4.81520    16.85320    -0.00000	      #     O159
         160         160           2     0.00000     4.81520    14.44560     2.40760	      #     O160
         161         161           1     2.00000     9.63040    14.44560    -0.00000	      #     Ca161
         162         162           1     2.00000     9.63040    16.85320     2.40760	      #     Ca162
         163         163           1     2.00000    12.03800    14.44560     2.40760	      #     Ca163
         164         164           1     2.00000    12.03800    16.85320    -0.00000	      #     Ca164
         165         165           2     0.00000    12.03800    16.85320     2.40760	      #     O165
         166         166           2     0.00000    12.03800    14.44560    -0.00000	      #     O166
         167         167           2     0.00000     9.63040    16.85320    -0.00000	      #     O167
         168         168           2     0.00000     9.63040    14.44560     2.40760	      #     O168
         169         169           1     2.00000    14.44560    14.44560    -0.00000	      #     Ca169
         170         170           1     2.00000    14.44560    16.85320     2.40760	      #     Ca170
         171         171           1     2.00000    16.85320    14.44560     2.40760	      #     Ca171
         172         172           1     2.00000    16.85320    16.85320    -0.00000	      #     Ca172
         173         173           2     0.00000    16.85320    16.85320     2.40760	      #     O173
         174         174           2     0.00000    16.85320    14.44560    -0.00000	      #     O174
         175         175           2     0.00000    14.44560    16.85320    -0.00000	      #     O175
         176         176           2     0.00000    14.44560    14.44560     2.40760	      #     O176
         177         177           1     2.00000    19.26080    14.44560    -0.00000	      #     Ca177
         178         178           1     2.00000    19.26080    16.85320     2.40760	      #     Ca178
         179         179           1     2.00000    21.66840    14.44560     2.40760	      #     Ca179
         180         180           1     2.00000    21.66840    16.85320    -0.00000	      #     Ca180
         181         181           2     0.00000    21.66840    16.85320     2.40760	      #     O181
         182         182           2     0.00000    21.66840    14.44560    -0.00000	      #     O182
         183         183           2     0.00000    19.26080    16.85320    -0.00000	      #     O183
         184         184           2     0.00000    19.26080    14.44560     2.40760	      #     O184
         185         185           1     2.00000    24.07600    14.44560    -0.00000	      #     Ca185
         186         186           1     2.00000    24.07600    16.85320     2.40760	      #     Ca186
         187         187           1     2.00000    26.48360    14.44560     2.40760	      #     Ca187
         188         188           1     2.00000    26.48360    16.85320    -0.00000	      #     Ca188
         189         189           2     0.00000    26.48360    16.85320     2.40760	      #     O189
         190         190           2     0.00000    26.48360    14.44560    -0.00000	      #     O190
         191         191           2     0.00000    24.07600    16.85320    -0.00000	      #     O191
         192         192           2     0.00000    24.07600    14.44560     2.40760	      #     O192
         193         193           1     2.00000     0.00000    19.26080    -0.00000	      #     Ca193
         194         194           1     2.00000     0.00000    21.66840     2.40760	      #     Ca194
         195         195           1     2.00000     2.40760    19.26080     2.40760	      #     Ca195
         196         196           1     2.00000     2.40760    21.66840    -0.00000	      #     Ca196
         197         197           2     0.00000     2.40760    21.66840     2.40760	      #     O197
         198         198           2     0.00000     2.40760    19.26080    -0.00000	      #     O198
         199         199           2     0.00000     0.00000    21.66840    -0.00000	      #     O199
         200         200           2     0.00000     0.00000    19.26080     2.40760	      #     O200
         201         201           1     2.00000     4.81520    19.26080    -0.00000	      #     Ca201
         202         202           1     2.00000     4.81520    21.66840     2.40760	      #     Ca202
         203         203           1     2.00000     7.22280    19.26080     2.40760	      #     Ca203
         204         204           1     2.00000     7.22280    21.66840    -0.00000	      #     Ca204
         205         205           2     0.00000     7.22280    21.66840     2.40760	      #     O205
         206         206           2     0.00000     7.22280    19.26080    -0.00000	      #     O206
         207         207           2     0.00000     4.81520    21.66840    -0.00000	      #     O207
         208         208           2     0.00000     4.81520    19.26080     2.40760	      #     O208
         209         209           1     2.00000     9.63040    19.26080    -0.00000	      #     Ca209
         210         210           1     2.00000     9.63040    21.66840     2.40760	      #     Ca210
         211         211           1     2.00000    12.03800    19.26080     2.40760	      #     Ca211
         212         212           1     2.00000    12.03800    21.66840    -0.00000	      #     Ca212
         213         213           2     0.00000    12.03800    21.66840     2.40760	      #     O213
         214         214           2     0.00000    12.03800    19.26080    -0.00000	      #     O214
         215         215           2     0.00000     9.63040    21.66840    -0.00000	      #     O215
         216         216           2     0.00000     9.63040    19.26080     2.40760	      #     O216
         217         217           1     2.00000    14.44560    19.26080    -0.00000	      #     Ca217
         218         218           1     2.00000    14.44560    21.66840     2.40760	      #     Ca218
         219         219           1     2.00000    16.85320    19.26080     2.40760	      #     Ca219
         220         220           1     2.00000    16.85320    21.66840    -0.00000	      #     Ca220
         221         221           2     0.00000    16.85320    21.66840     2.40760	      #     O221
         222         222           2     0.00000    16.85320    19.26080    -0.00000	      #     O222
         223         223           2     0.00000    14.44560    21.66840    -0.00000	      #     O223
         224         224           2     0.00000    14.44560    19.26080     2.40760	      #     O224
         225         225           1     2.00000    19.26080    19.26080    -0.00000	      #     Ca225
         226         226           1     2.00000    19.26080    21.66840     2.40760	      #     Ca226
         227         227           1     2.00000    21.66840    19.26080     2.40760	      #     Ca227
         228         228           1     2.00000    21.66840    21.66840    -0.00000	      #     Ca228
         229         229           2     0.00000    21.66840    21.66840     2.40760	      #     O229
         230         230           2     0.00000    21.66840    19.26080    -0.00000	      #     O230
         231         231           2     0.00000    19.26080    21.66840    -0.00000	      #     O231
         232         232           2     0.00000    19.26080    19.26080     2.40760	      #     O232
         233         233           1     2.00000    24.07600    19.26080    -0.00000	      #     Ca233
         234         234           1     2.00000    24.07600    21.66840     2.40760	      #     Ca234
         235         235           1     2.00000    26.48360    19.26080     2.40760	      #     Ca235
         236         236           1     2.00000    26.48360    21.66840    -0.00000	      #     Ca236
         237         237           2     0.00000    26.48360    21.66840     2.40760	      #     O237
         238         238           2     0.00000    26.48360    19.26080    -0.00000	      #     O238
         239         239           2     0.00000    24.07600    21.66840    -0.00000	      #     O239
         240         240           2     0.00000    24.07600    19.26080     2.40760	      #     O240
         241         241           1     2.00000     0.00000    24.07600    -0.00000	      #     Ca241
         242         242           1     2.00000     0.00000    26.48360     2.40760	      #     Ca242
         243         243           1     2.00000     2.40760    24.07600     2.40760	      #     Ca243
         244         244           1     2.00000     2.40760    26.48360    -0.00000	      #     Ca244
         245         245           2     0.00000     2.40760    26.48360     2.40760	      #     O245
         246         246           2     0.00000     2.40760    24.07600    -0.00000	      #     O246
         247         247           2     0.00000     0.00000    26.48360    -0.00000	      #     O247
         248         248           2     0.00000     0.00000    24.07600     2.40760	      #     O248
         249         249           1     2.00000     4.81520    24.07600    -0.00000	      #     Ca249
         250         250           1     2.00000     4.81520    26.48360     2.40760	      #     Ca250
         251         251           1     2.00000     7.22280    24.07600     2.40760	      #     Ca251
         252         252           1     2.00000     7.22280    26.48360    -0.00000	      #     Ca252
         253         253           2     0.00000     7.22280    26.48360     2.40760	      #     O253
         254         254           2     0.00000     7.22280    24.07600    -0.00000	      #     O254
         255         255           2     0.00000     4.81520    26.48360    -0.00000	      #     O255
         256         256           2     0.00000     4.81520    24.07600     2.40760	      #     O256
         257         257           1     2.00000     9.63040    24.07600    -0.00000	      #     Ca257
         258         258           1     2.00000     9.63040    26.48360     2.40760	      #     Ca258
         259         259           1     2.00000    12.03800    24.07600     2.40760	      #     Ca259
         260         260           1     2.00000    12.03800    26.48360    -0.00000	      #     Ca260
         261         261           2     0.00000    12.03800    26.48360     2.40760	      #     O261
         262         262           2     0.00000    12.03800    24.07600    -0.00000	      #     O262
         263         263           2     0.00000     9.63040    26.48360    -0.00000	      #     O263
         264         264           2     0.00000     9.63040    24.07600     2.40760	      #     O264
         265         265           1     2.00000    14.44560    24.07600    -0.00000	      #     Ca265
         266         266           1     2.00000    14.44560    26.48360     2.40760	      #     Ca266
         267         267           1     2.00000    16.85320    24.07600     2.40760	      #     Ca267
         268         268           1     2.00000    16.85320    26.48360    -0.00000	      #     Ca268
         269         269           2     0.00000    16.85320    26.48360     2.40760	      #     O269
         270         270           2     0.00000    16.85320    24.07600    -0.00000	      #     O270
         271         271           2     0.00000    14.44560    26.48360    -0.00000	      #     O271
         272         272           2     0.00000    14.44560    24.07600     2.40760	      #     O272
         273         273           1     2.00000    19.26080    24.07600    -0.00000	      #     Ca273
         274         274           1     2.00000    19.26080    26.48360     2.40760	      #     Ca274
         275         275           1     2.00000    21.66840    24.07600     2.40760	      #     Ca275
         276         276           1     2.00000    21.66840    26.48360    -0.00000	      #     Ca276
         277         277           2     0.00000    21.66840    26.48360     2.40760	      #     O277
         278         278           2     0.00000    21.66840    24.07600    -0.00000	      #     O278
         279         279           2     0.00000    19.26080    26.48360    -0.00000	      #     O279
         280         280           2     0.00000    19.26080    24.07600     2.40760	      #     O280
         281         281           1     2.00000    24.07600    24.07600    -0.00000	      #     Ca281
         282         282           1     2.00000    24.07600    26.48360     2.40760	      #     Ca282
         283         283           1     2.00000    26.48360    24.07600     2.40760	      #     Ca283
         284         284           1     2.00000    26.48360    26.48360    -0.00000	      #     Ca284
         285         285           2     0.00000    26.48360    26.48360     2.40760	      #     O285
         286         286           2     0.00000    26.48360    24.07600    -0.00000	      #     O286
         287         287           2     0.00000    24.07600    26.48360    -0.00000	      #     O287
         288         288           2     0.00000    24.07600    24.07600     2.40760	      #     O288
         289         289           1     2.00000     0.00000     0.00000     4.81520	      #     Ca289
         290         290           1     2.00000     0.00000     2.40760     7.22280	      #     Ca290