# Created by simulation python

1728 atoms

4 atom types

 0.0   28.8912 xlo xhi
 0.0   28.8912 ylo yhi
 0.0   28.8912 zlo zhi
Masses

1 40.078
2 15.994
3 1.0079
4 26.982

Atoms

1       1  0.000000    0.000000    0.000000   -0.000000
2       1  0.000000    0.000000    2.407600    2.407600
3       1  0.000000    2.407600    0.000000    2.407600
4       1  0.000000    2.407600    2.407600   -0.000000
5       2  0.000000    2.407600    2.407600    2.407600
6       2  0.000000    2.407600    0.000000   -0.000000
7       2  0.000000    0.000000    2.407600   -0.000000
8       2  0.000000    0.000000    0.000000    2.407600
9       1  0.000000    4.815200    0.000000   -0.000000
10      1  0.000000    4.815200    2.407600    2.407600
11      1  0.000000    7.222800    0.000000    2.407600
12      1  0.000000    7.222800    2.407600   -0.000000
13      2  0.000000    7.222800    2.407600    2.407600
14      2  0.000000    7.222800    0.000000   -0.000000
15      2  0.000000    4.815200    2.407600   -0.000000
16      2  0.000000    4.815200    0.000000    2.407600
17      1  0.000000    9.630400    0.000000   -0.000000
18      1  0.000000    9.630400    2.407600    2.407600
19      1  0.000000   12.038000    0.000000    2.407600
20      1  0.000000   12.038000    2.407600   -0.000000
21      2  0.000000   12.038000    2.407600    2.407600
22      2  0.000000   12.038000    0.000000   -0.000000
23      2  0.000000    9.630400    2.407600   -0.000000
24      2  0.000000    9.630400    0.000000    2.407600
25      1  0.000000   14.445600    0.000000   -0.000000
26      1  0.000000   14.445600    2.407600    2.407600
27      1  0.000000   16.853200    0.000000    2.407600
28      1  0.000000   16.853200    2.407600   -0.000000
29      2  0.000000   16.853200    2.407600    2.407600
30      2  0.000000   16.853200    0.000000   -0.000000
31      2  0.000000   14.445600    2.407600   -0.000000
32      2  0.000000   14.445600    0.000000    2.407600
33      1  0.000000   19.260800    0.000000   -0.000000
34      1  0.000000   19.260800    2.407600    2.407600
35      1  0.000000   21.668400    0.000000    2.407600
36      1  0.000000   21.668400    2.407600   -0.000000
37      2  0.000000   21.668400    2.407600    2.407600
38      2  0.000000   21.668400    0.000000   -0.000000
39      2  0.000000   19.260800    2.407600   -0.000000
40      2  0.000000   19.260800    0.000000    2.407600
41      1  0.000000   24.076000    0.000000   -0.000000
42      1  0.000000   24.076000    2.407600    2.407600
43      1  0.000000   26.483600    0.000000    2.407600
44      1  0.000000   26.483600    2.407600   -0.000000
45      2  0.000000   26.483600    2.407600    2.407600
46      2  0.000000   26.483600    0.000000   -0.000000
47      2  0.000000   24.076000    2.407600   -0.000000
48      2  0.000000   24.076000    0.000000    2.407600
49      1  0.000000    0.000000    4.815200   -0.000000
50      1  0.000000    0.000000    7.222800    2.407600
51      1  0.000000    2.407600    4.815200    2.407600
52      1  0.000000    2.407600    7.222800   -0.000000
53      2  0.000000    2.407600    7.222800    2.407600
54      2  0.000000    2.407600    4.815200   -0.000000
55      2  0.000000    0.000000    7.222800   -0.000000
56      2  0.000000    0.000000    4.815200    2.407600
57      1  0.000000    4.815200    4.815200   -0.000000
58      1  0.000000    4.815200    7.222800    2.407600
59      1  0.000000    7.222800    4.815200    2.407600
60      1  0.000000    7.222800    7.222800   -0.000000
61      2  0.000000    7.222800    7.222800    2.407600
62      2  0.000000    7.222800    4.815200   -0.000000
63      2  0.000000    4.815200    7.222800   -0.000000
64      2  0.000000    4.815200    4.815200    2.407600
65      1  0.000000    9.630400    4.815200   -0.000000
66      1  0.000000    9.630400    7.222800    2.407600
67      1  0.000000   12.038000    4.815200    2.407600
68      1  0.000000   12.038000    7.222800   -0.000000
69      2  0.000000   12.038000    7.222800    2.407600
70      2  0.000000   12.038000    4.815200   -0.000000
71      2  0.000000    9.630400    7.222800   -0.000000
72      2  0.000000    9.630400    4.815200    2.407600
73      1  0.000000   14.445600    4.815200   -0.000000
74      3  0.000000   14.445600    7.222800    2.407600
75      1  0.000000   16.853200    4.815200    2.407600
76      3  0.000000   16.853200    7.222800   -0.000000
77      2  0.000000   16.853200    7.222800    2.407600
78      2  0.000000   16.853200    4.815200   -0.000000
79      2  0.000000   14.445600    7.222800   -0.000000
80      2  0.000000   14.445600    4.815200    2.407600
81      1  0.000000   19.260800    4.815200   -0.000000
82      1  0.000000   19.260800    7.222800    2.407600
83      1  0.000000   21.668400    4.815200    2.407600
84      1  0.000000   21.668400    7.222800   -0.000000
85      2  0.000000   21.668400    7.222800    2.407600
86      2  0.000000   21.668400    4.815200   -0.000000
87      2  0.000000   19.260800    7.222800   -0.000000
88      2  0.000000   19.260800    4.815200    2.407600
89      1  0.000000   24.076000    4.815200   -0.000000
90      1  0.000000   24.076000    7.222800    2.407600
91      1  0.000000   26.483600    4.815200    2.407600
92      1  0.000000   26.483600    7.222800   -0.000000
93      2  0.000000   26.483600    7.222800    2.407600
94      2  0.000000   26.483600    4.815200   -0.000000
95      2  0.000000   24.076000    7.222800   -0.000000
96      2  0.000000   24.076000    4.815200    2.407600
97      1  0.000000    0.000000    9.630400   -0.000000
98      3  0.000000    0.000000   12.038000    2.407600
99      1  0.000000    2.407600    9.630400    2.407600
100     1  0.000000    2.407600   12.038000   -0.000000
101     2  0.000000    2.407600   12.038000    2.407600
102     2  0.000000    2.407600    9.630400   -0.000000
103     2  0.000000    0.000000   12.038000   -0.000000
104     2  0.000000    0.000000    9.630400    2.407600
105     1  0.000000    4.815200    9.630400   -0.000000
106     1  0.000000    4.815200   12.038000    2.407600
107     1  0.000000    7.222800    9.630400    2.407600
108     1  0.000000    7.222800   12.038000   -0.000000
109     2  0.000000    7.222800   12.038000    2.407600
110     2  0.000000    7.222800    9.630400   -0.000000
111     2  0.000000    4.815200   12.038000   -0.000000
112     2  0.000000    4.815200    9.630400    2.407600
113     1  0.000000    9.630400    9.630400   -0.000000
114     1  0.000000    9.630400   12.038000    2.407600
115     1  0.000000   12.038000    9.630400    2.407600
116     1  0.000000   12.038000   12.038000   -0.000000
117     2  0.000000   12.038000   12.038000    2.407600
118     2  0.000000   12.038000    9.630400   -0.000000
119     2  0.000000    9.630400   12.038000   -0.000000
120     2  0.000000    9.630400    9.630400    2.407600
121     1  0.000000   14.445600    9.630400   -0.000000
122     1  0.000000   14.445600   12.038000    2.407600
123     1  0.000000   16.853200    9.630400    2.407600
124     4  0.000000   16.853200   12.038000   -0.000000
125     2  0.000000   16.853200   12.038000    2.407600
126     2  0.000000   16.853200    9.630400   -0.000000
127     2  0.000000   14.445600   12.038000   -0.000000
128     2  0.000000   14.445600    9.630400    2.407600
129     1  0.000000   19.260800    9.630400   -0.000000
130     1  0.000000   19.260800   12.038000    2.407600
131     1  0.000000   21.668400    9.630400    2.407600
132     1  0.000000   21.668400   12.038000   -0.000000
133     2  0.000000   21.668400   12.038000    2.407600
134     2  0.000000   21.668400    9.630400   -0.000000
135     2  0.000000   19.260800   12.038000   -0.000000
136     2  0.000000   19.260800    9.630400    2.407600
137     1  0.000000   24.076000    9.630400   -0.000000
138     1  0.000000   24.076000   12.038000    2.407600
139     1  0.000000   26.483600    9.630400    2.407600
140     1  0.000000   26.483600   12.038000   -0.000000
141     2  0.000000   26.483600   12.038000    2.407600
142     2  0.000000   26.483600    9.630400   -0.000000
143     2  0.000000   24.076000   12.038000   -0.000000
144     2  0.000000   24.076000    9.630400    2.407600
145     1  0.000000    0.000000   14.445600   -0.000000
146     1  0.000000    0.000000   16.853200    2.407600
147     1  0.000000    2.407600   14.445600    2.407600
148     1  0.000000    2.407600   16.853200   -0.000000
149     2  0.000000    2.407600   16.853200    2.407600
150     2  0.000000    2.407600   14.445600   -0.000000
151     2  0.000000    0.000000   16.853200   -0.000000
152     2  0.000000    0.000000   14.445600    2.407600
153     1  0.000000    4.815200   14.445600   -0.000000
154     1  0.000000    4.815200   16.853200    2.407600
155     4  0.000000    7.222800   14.445600    2.407600
156     1  0.000000    7.222800   16.853200   -0.000000
157     2  0.000000    7.222800   16.853200    2.407600
158     2  0.000000    7.222800   14.445600   -0.000000
159     2  0.000000    4.815200   16.853200   -0.000000
160     2  0.000000    4.815200   14.445600    2.407600
161     1  0.000000    9.630400   14.445600   -0.000000
162     1  0.000000    9.630400   16.853200    2.407600
163     1  0.000000   12.038000   14.445600    2.407600
164     3  0.000000   12.038000   16.853200   -0.000000
165     2  0.000000   12.038000   16.853200    2.407600
166     2  0.000000   12.038000   14.445600   -0.000000
167     2  0.000000    9.630400   16.853200   -0.000000
168     2  0.000000    9.630400   14.445600    2.407600
169     1  0.000000   14.445600   14.445600   -0.000000
170     1  0.000000   14.445600   16.853200    2.407600
171     1  0.000000   16.853200   14.445600    2.407600
172     1  0.000000   16.853200   16.853200   -0.000000
173     2  0.000000   16.853200   16.853200    2.407600
174     2  0.000000   16.853200   14.445600   -0.000000
175     2  0.000000   14.445600   16.853200   -0.000000
176     2  0.000000   14.445600   14.445600    2.407600
177     1  0.000000   19.260800   14.445600   -0.000000
178     1  0.000000   19.260800   16.853200    2.407600
179     1  0.000000   21.668400   14.445600    2.407600
180     1  0.000000   21.668400   16.853200   -0.000000
181     2  0.000000   21.668400   16.853200    2.407600
182     2  0.000000   21.668400   14.445600   -0.000000
183     2  0.000000   19.260800   16.853200   -0.000000
184     2  0.000000   19.260800   14.445600    2.407600
185     1  0.000000   24.076000   14.445600   -0.000000
186     1  0.000000   24.076000   16.853200    2.407600
187     1  0.000000   26.483600   14.445600    2.407600
188     4  0.000000   26.483600   16.853200   -0.000000
189     2  0.000000   26.483600   16.853200    2.407600
190     2  0.000000   26.483600   14.445600   -0.000000
191     2  0.000000   24.076000   16.853200   -0.000000
192     2  0.000000   24.076000   14.445600    2.407600
193     1  0.000000    0.000000   19.260800   -0.000000
194     1  0.000000    0.000000   21.668400    2.407600
195     1  0.000000    2.407600   19.260800    2.407600
196     1  0.000000    2.407600   21.668400   -0.000000
197     2  0.000000    2.407600   21.668400    2.407600
198     2  0.000000    2.407600   19.260800   -0.000000
199     2  0.000000    0.000000   21.668400   -0.000000
200     2  0.000000    0.000000   19.260800    2.407600
201     1  0.000000    4.815200   19.260800   -0.000000
202     1  0.000000    4.815200   21.668400    2.407600
203     1  0.000000    7.222800   19.260800    2.407600
204     1  0.000000    7.222800   21.668400   -0.000000
205     2  0.000000    7.222800   21.668400    2.407600
206     2  0.000000    7.222800   19.260800   -0.000000
207     2  0.000000    4.815200   21.668400   -0.000000
208     2  0.000000    4.815200   19.260800    2.407600
209     1  0.000000    9.630400   19.260800   -0.000000
210     1  0.000000    9.630400   21.668400    2.407600
211     1  0.000000   12.038000   19.260800    2.407600
212     1  0.000000   12.038000   21.668400   -0.000000
213     2  0.000000   12.038000   21.668400    2.407600
214     2  0.000000   12.038000   19.260800   -0.000000
215     2  0.000000    9.630400   21.668400   -0.000000
216     2  0.000000    9.630400   19.260800    2.407600
217     1  0.000000   14.445600   19.260800   -0.000000
218     1  0.000000   14.445600   21.668400    2.407600
219     1  0.000000   16.853200   19.260800    2.407600
220     1  0.000000   16.853200   21.668400   -0.000000
221     2  0.000000   16.853200   21.668400    2.407600
222     2  0.000000   16.853200   19.260800   -0.000000
223     2  0.000000   14.445600   21.668400   -0.000000
224     2  0.000000   14.445600   19.260800    2.407600
225     1  0.000000   19.260800   19.260800   -0.000000
226     1  0.000000   19.260800   21.668400    2.407600
227     4  0.000000   21.668400   19.260800    2.407600
228     1  0.000000   21.668400   21.668400   -0.000000
229     2  0.000000   21.668400   21.668400    2.407600
230     2  0.000000   21.668400   19.260800   -0.000000
231     2  0.000000   19.260800   21.668400   -0.000000
232     2  0.000000   19.260800   19.260800    2.407600
233     1  0.000000   24.076000   19.260800   -0.000000
234     1  0.000000   24.076000   21.668400    2.407600
235     1  0.000000   26.483600   19.260800    2.407600
236     1  0.000000   26.483600   21.668400   -0.000000
237     2  0.000000   26.483600   21.668400    2.407600
238     2  0.000000   26.483600   19.260800   -0.000000
239     2  0.000000   24.076000   21.668400   -0.000000
240     2  0.000000   24.076000   19.260800    2.407600
241     1  0.000000    0.000000   24.076000   -0.000000
242     1  0.000000    0.000000   26.483600    2.407600
243     1  0.000000    2.407600   24.076000    2.407600
244     1  0.000000    2.407600   26.483600   -0.000000
245     2  0.000000    2.407600   26.483600    2.407600
246     2  0.000000    2.407600   24.076000   -0.000000
247     2  0.000000    0.000000   26.483600   -0.000000
248     2  0.000000    0.000000   24.076000    2.407600
249     1  0.000000    4.815200   24.076000   -0.000000
250     1  0.000000    4.815200   26.483600    2.407600
251     1  0.000000    7.222800   24.076000    2.407600
252     1  0.000000    7.222800   26.483600   -0.000000
253     2  0.000000    7.222800   26.483600    2.407600
254     2  0.000000    7.222800   24.076000   -0.000000
255     2  0.000000    4.815200   26.483600   -0.000000
256     2  0.000000    4.815200   24.076000    2.407600
257     1  0.000000    9.630400   24.076000   -0.000000
258     1  0.000000    9.630400   26.483600    2.407600
259     1  0.000000   12.038000   24.076000    2.407600
260     1  0.000000   12.038000   26.483600   -0.000000
261     2  0.000000   12.038000   26.483600    2.407600
262     2  0.000000   12.038000   24.076000   -0.000000
263     2  0.000000    9.630400   26.483600   -0.000000
264     2  0.000000    9.630400   24.076000    2.407600
265     1  0.000000   14.445600   24.076000   -0.000000
266     1  0.000000   14.445600   26.483600    2.407600
267     1  0.000000   16.853200   24.076000    2.407600
268     1  0.000000   16.853200   26.483600   -0.000000
269     2  0.000000   16.853200   26.483600    2.407600
270     2  0.000000   16.853200   24.076000   -0.000000
271     2  0.000000   14.445600   26.483600   -0.000000
272     2  0.000000   14.445600   24.076000    2.407600
273     1  0.000000   19.260800   24.076000   -0.000000
274     1  0.000000   19.260800   26.483600    2.407600
275     1  0.000000   21.668400   24.076000    2.407600
276     1  0.000000   21.668400   26.483600   -0.000000
277     2  0.000000   21.668400   26.483600    2.407600
278     2  0.000000   21.668400   24.076000   -0.000000
279     2  0.000000   19.260800   26.483600   -0.000000
280     2  0.000000   19.260800   24.076000    2.407600
281     1  0.000000   24.076000   24.076000   -0.000000
282     1  0.000000   24.076000   26.483600    2.407600
283     1  0.000000   26.483600   24.076000    2.407600
284     1  0.000000   26.483600   26.483600   -0.000000
285     2  0.000000   26.483600   26.483600    2.407600
286     2  0.000000   26.483600   24.076000   -0.000000
287     2  0.000000   24.076000   26.483600   -0.000000
288     2  0.000000   24.076000   24.076000    2.407600
289     1  0.000000    0.000000    0.000000    4.815200
290     1  0.000000    0.000000    2.407600    7.222800
291     1  0.000000    2.407600    0.000000    7.222800
292     1  0.000000    2.407600    2.407600    4.815200
293     2  0.000000    2.407600    2.407600    7.222800
294     2  0.000000    2.407600    0.000000    4.815200
295     2  0.000000    0.000000    2.407600    4.815200
296     2  0.000000    0.000000    0.000000    7.222800
297     1  0.000000    4.815200    0.000000    4.815200
298     1  0.000000    4.815200    2.407600    7.222800
299     1  0.000000    7.222800    0.000000    7.222800
300     1  0.000000    7.222800    2.407600    4.815200
301     2  0.000000    7.222800    2.407600    7.222800
302     2  0.000000    7.222800    0.000000    4.815200
303     2  0.000000    4.815200    2.407600    4.815200
304     2  0.000000    4.815200    0.000000    7.222800
305     1  0.000000    9.630400    0.000000    4.815200
306     1  0.000000    9.630400    2.407600    7.222800
307     1  0.000000   12.038000    0.000000    7.222800
308     1  0.000000   12.038000    2.407600    4.815200
309     2  0.000000   12.038000    2.407600    7.222800
310     2  0.000000   12.038000    0.000000    4.815200
311     2  0.000000    9.630400    2.407600    4.815200
312     2  0.000000    9.630400    0.000000    7.222800
313     1  0.000000   14.445600    0.000000    4.815200
314     1  0.000000   14.445600    2.407600    7.222800
315     1  0.000000   16.853200    0.000000    7.222800
316     3  0.000000   16.853200    2.407600    4.815200
317     2  0.000000   16.853200    2.407600    7.222800
318     2  0.000000   16.853200    0.000000    4.815200
319     2  0.000000   14.445600    2.407600    4.815200
320     2  0.000000   14.445600    0.000000    7.222800
321     1  0.000000   19.260800    0.000000    4.815200
322     1  0.000000   19.260800    2.407600    7.222800
323     1  0.000000   21.668400    0.000000    7.222800
324     1  0.000000   21.668400    2.407600    4.815200
325     2  0.000000   21.668400    2.407600    7.222800
326     2  0.000000   21.668400    0.000000    4.815200
327     2  0.000000   19.260800    2.407600    4.815200
328     2  0.000000   19.260800    0.000000    7.222800
329     1  0.000000   24.076000    0.000000    4.815200
330     3  0.000000   24.076000    2.407600    7.222800
331     1  0.000000   26.483600    0.000000    7.222800
332     1  0.000000   26.483600    2.407600    4.815200
333     2  0.000000   26.483600    2.407600    7.222800
334     2  0.000000   26.483600    0.000000    4.815200
335     2  0.000000   24.076000    2.407600    4.815200
336     2  0.000000   24.076000    0.000000    7.222800
337     1  0.000000    0.000000    4.815200    4.815200
338     1  0.000000    0.000000    7.222800    7.222800
339     1  0.000000    2.407600    4.815200    7.222800
340     1  0.000000    2.407600    7.222800    4.815200
341     2  0.000000    2.407600    7.222800    7.222800
342     2  0.000000    2.407600    4.815200    4.815200
343     2  0.000000    0.000000    7.222800    4.815200
344     2  0.000000    0.000000    4.815200    7.222800
345     1  0.000000    4.815200    4.815200    4.815200
346     1  0.000000    4.815200    7.222800    7.222800
347     1  0.000000    7.222800    4.815200    7.222800
348     1  0.000000    7.222800    7.222800    4.815200
349     2  0.000000    7.222800    7.222800    7.222800
350     2  0.000000    7.222800    4.815200    4.815200
351     2  0.000000    4.815200    7.222800    4.815200
352     2  0.000000    4.815200    4.815200    7.222800
353     1  0.000000    9.630400    4.815200    4.815200
354     1  0.000000    9.630400    7.222800    7.222800
355     1  0.000000   12.038000    4.815200    7.222800
356     1  0.000000   12.038000    7.222800    4.815200
357     2  0.000000   12.038000    7.222800    7.222800
358     2  0.000000   12.038000    4.815200    4.815200
359     2  0.000000    9.630400    7.222800    4.815200
360     2  0.000000    9.630400    4.815200    7.222800
361     1  0.000000   14.445600    4.815200    4.815200
362     1  0.000000   14.445600    7.222800    7.222800
363     1  0.000000   16.853200    4.815200    7.222800
364     1  0.000000   16.853200    7.222800    4.815200
365     2  0.000000   16.853200    7.222800    7.222800
366     2  0.000000   16.853200    4.815200    4.815200
367     2  0.000000   14.445600    7.222800    4.815200
368     2  0.000000   14.445600    4.815200    7.222800
369     1  0.000000   19.260800    4.815200    4.815200
370     1  0.000000   19.260800    7.222800    7.222800
371     1  0.000000   21.668400    4.815200    7.222800
372     1  0.000000   21.668400    7.222800    4.815200
373     2  0.000000   21.668400    7.222800    7.222800
374     2  0.000000   21.668400    4.815200    4.815200
375     2  0.000000   19.260800    7.222800    4.815200
376     2  0.000000   19.260800    4.815200    7.222800
377     1  0.000000   24.076000    4.815200    4.815200
378     1  0.000000   24.076000    7.222800    7.222800
379     1  0.000000   26.483600    4.815200    7.222800
380     1  0.000000   26.483600    7.222800    4.815200
381     2  0.000000   26.483600    7.222800    7.222800
382     2  0.000000   26.483600    4.815200    4.815200
383     2  0.000000   24.076000    7.222800    4.815200
384     2  0.000000   24.076000    4.815200    7.222800
385     1  0.000000    0.000000    9.630400    4.815200
386     1  0.000000    0.000000   12.038000    7.222800
387     1  0.000000    2.407600    9.630400    7.222800
388     1  0.000000    2.407600   12.038000    4.815200
389     2  0.000000    2.407600   12.038000    7.222800
390     2  0.000000    2.407600    9.630400    4.815200
391     2  0.000000    0.000000   12.038000    4.815200
392     2  0.000000    0.000000    9.630400    7.222800
393     1  0.000000    4.815200    9.630400    4.815200
394     1  0.000000    4.815200   12.038000    7.222800
395     1  0.000000    7.222800    9.630400    7.222800
396     1  0.000000    7.222800   12.038000    4.815200
397     2  0.000000    7.222800   12.038000    7.222800
398     2  0.000000    7.222800    9.630400    4.815200
399     2  0.000000    4.815200   12.038000    4.815200
400     2  0.000000    4.815200    9.630400    7.222800
401     1  0.000000    9.630400    9.630400    4.815200
402     1  0.000000    9.630400   12.038000    7.222800
403     1  0.000000   12.038000    9.630400    7.222800
404     1  0.000000   12.038000   12.038000    4.815200
405     2  0.000000   12.038000   12.038000    7.222800
406     2  0.000000   12.038000    9.630400    4.815200
407     2  0.000000    9.630400   12.038000    4.815200
408     2  0.000000    9.630400    9.630400    7.222800
409     1  0.000000   14.445600    9.630400    4.815200
410     1  0.000000   14.445600   12.038000    7.222800
411     1  0.000000   16.853200    9.630400    7.222800
412     1  0.000000   16.853200   12.038000    4.815200
413     2  0.000000   16.853200   12.038000    7.222800
414     2  0.000000   16.853200    9.630400    4.815200
415     2  0.000000   14.445600   12.038000    4.815200
416     2  0.000000   14.445600    9.630400    7.222800
417     1  0.000000   19.260800    9.630400    4.815200
418     1  0.000000   19.260800   12.038000    7.222800
419     1  0.000000   21.668400    9.630400    7.222800
420     1  0.000000   21.668400   12.038000    4.815200
421     2  0.000000   21.668400   12.038000    7.222800
422     2  0.000000   21.668400    9.630400    4.815200
423     2  0.000000   19.260800   12.038000    4.815200
424     2  0.000000   19.260800    9.630400    7.222800
425     1  0.000000   24.076000    9.630400    4.815200
426     1  0.000000   24.076000   12.038000    7.222800
427     1  0.000000   26.483600    9.630400    7.222800
428     1  0.000000   26.483600   12.038000    4.815200
429     2  0.000000   26.483600   12.038000    7.222800
430     2  0.000000   26.483600    9.630400    4.815200
431     2  0.000000   24.076000   12.038000    4.815200
432     2  0.000000   24.076000    9.630400    7.222800
433     4  0.000000    0.000000   14.445600    4.815200
434     1  0.000000    0.000000   16.853200    7.222800
435     1  0.000000    2.407600   14.445600    7.222800
436     1  0.000000    2.407600   16.853200    4.815200
437     2  0.000000    2.407600   16.853200    7.222800
438     2  0.000000    2.407600   14.445600    4.815200
439     2  0.000000    0.000000   16.853200    4.815200
440     2  0.000000    0.000000   14.445600    7.222800
441     1  0.000000    4.815200   14.445600    4.815200
442     1  0.000000    4.815200   16.853200    7.222800
443     1  0.000000    7.222800   14.445600    7.222800
444     1  0.000000    7.222800   16.853200    4.815200
445     2  0.000000    7.222800   16.853200    7.222800
446     2  0.000000    7.222800   14.445600    4.815200
447     2  0.000000    4.815200   16.853200    4.815200
448     2  0.000000    4.815200   14.445600    7.222800
449     1  0.000000    9.630400   14.445600    4.815200
450     1  0.000000    9.630400   16.853200    7.222800
451     1  0.000000   12.038000   14.445600    7.222800
452     1  0.000000   12.038000   16.853200    4.815200
453     2  0.000000   12.038000   16.853200    7.222800
454     2  0.000000   12.038000   14.445600    4.815200
455     2  0.000000    9.630400   16.853200    4.815200
456     2  0.000000    9.630400   14.445600    7.222800
457     1  0.000000   14.445600   14.445600    4.815200
458     1  0.000000   14.445600   16.853200    7.222800
459     1  0.000000   16.853200   14.445600    7.222800
460     1  0.000000   16.853200   16.853200    4.815200
461     2  0.000000   16.853200   16.853200    7.222800
462     2  0.000000   16.853200   14.445600    4.815200
463     2  0.000000   14.445600   16.853200    4.815200
464     2  0.000000   14.445600   14.445600    7.222800
465     1  0.000000   19.260800   14.445600    4.815200
466     1  0.000000   19.260800   16.853200    7.222800
467     4  0.000000   21.668400   14.445600    7.222800
468     1  0.000000   21.668400   16.853200    4.815200
469     2  0.000000   21.668400   16.853200    7.222800
470     2  0.000000   21.668400   14.445600    4.815200
471     2  0.000000   19.260800   16.853200    4.815200
472     2  0.000000   19.260800   14.445600    7.222800
473     1  0.000000   24.076000   14.445600    4.815200
474     1  0.000000   24.076000   16.853200    7.222800
475     1  0.000000   26.483600   14.445600    7.222800
476     1  0.000000   26.483600   16.853200    4.815200
477     2  0.000000   26.483600   16.853200    7.222800
478     2  0.000000   26.483600   14.445600    4.815200
479     2  0.000000   24.076000   16.853200    4.815200
480     2  0.000000   24.076000   14.445600    7.222800
481     3  0.000000    0.000000   19.260800    4.815200
482     1  0.000000    0.000000   21.668400    7.222800
483     1  0.000000    2.407600   19.260800    7.222800
484     1  0.000000    2.407600   21.668400    4.815200
485     2  0.000000    2.407600   21.668400    7.222800
486     2  0.000000    2.407600   19.260800    4.815200
487     2  0.000000    0.000000   21.668400    4.815200
488     2  0.000000    0.000000   19.260800    7.222800
489     1  0.000000    4.815200   19.260800    4.815200
490     1  0.000000    4.815200   21.668400    7.222800
491     1  0.000000    7.222800   19.260800    7.222800
492     1  0.000000    7.222800   21.668400    4.815200
493     2  0.000000    7.222800   21.668400    7.222800
494     2  0.000000    7.222800   19.260800    4.815200
495     2  0.000000    4.815200   21.668400    4.815200
496     2  0.000000    4.815200   19.260800    7.222800
497     1  0.000000    9.630400   19.260800    4.815200
498     1  0.000000    9.630400   21.668400    7.222800
499     1  0.000000   12.038000   19.260800    7.222800
500     1  0.000000   12.038000   21.668400    4.815200
501     2  0.000000   12.038000   21.668400    7.222800
502     2  0.000000   12.038000   19.260800    4.815200
503     2  0.000000    9.630400   21.668400    4.815200
504     2  0.000000    9.630400   19.260800    7.222800
505     1  0.000000   14.445600   19.260800    4.815200
506     1  0.000000   14.445600   21.668400    7.222800
507     1  0.000000   16.853200   19.260800    7.222800
508     1  0.000000   16.853200   21.668400    4.815200
509     2  0.000000   16.853200   21.668400    7.222800
510     2  0.000000   16.853200   19.260800    4.815200
511     2  0.000000   14.445600   21.668400    4.815200
512     2  0.000000   14.445600   19.260800    7.222800
513     1  0.000000   19.260800   19.260800    4.815200
514     1  0.000000   19.260800   21.668400    7.222800
515     1  0.000000   21.668400   19.260800    7.222800
516     1  0.000000   21.668400   21.668400    4.815200
517     2  0.000000   21.668400   21.668400    7.222800
518     2  0.000000   21.668400   19.260800    4.815200
519     2  0.000000   19.260800   21.668400    4.815200
520     2  0.000000   19.260800   19.260800    7.222800
521     1  0.000000   24.076000   19.260800    4.815200
522     1  0.000000   24.076000   21.668400    7.222800
523     1  0.000000   26.483600   19.260800    7.222800
524     1  0.000000   26.483600   21.668400    4.815200
525     2  0.000000   26.483600   21.668400    7.222800
526     2  0.000000   26.483600   19.260800    4.815200
527     2  0.000000   24.076000   21.668400    4.815200
528     2  0.000000   24.076000   19.260800    7.222800
529     1  0.000000    0.000000   24.076000    4.815200
530     1  0.000000    0.000000   26.483600    7.222800
531     4  0.000000    2.407600   24.076000    7.222800
532     4  0.000000    2.407600   26.483600    4.815200