LAMMPS data file from restart file: timestep = 100000, procs = 32

1024 atoms

5 atom types

0.0000000000000000e+00 2.2951000000000001e+01 xlo xhi
0.0000000000000000e+00 1.9722700000000000e+01 ylo yhi
0.0000000000000000e+00 2.2398000000000000e+01 zlo zhi
-1.1475500000000000e+01 0.0000000000000000e+00 0.0000000000000000e+00 xy xz yz

Masses

1 26.9815
2 40.078
3 1.00794
4 15.9994
5 32.066

Atoms

2 2 1.3577802421881442e+00 -9.0992462896248960e-01 1.7394651554429170e+00 2.7064424134064455e+00 0 0 0
128 3 3.7071915648024534e-01 4.4907187112357123e+00 1.6940297178664849e+00 2.1358957205539340e+00 0 0 0
127 3 3.8891730636039779e-01 4.1561490577087721e+00 2.5053854810674072e+00 3.4645883975785119e+00 0 0 0
53 3 4.0237997194842728e-01 -8.7126820242889957e-01 4.1824177138705032e+00 4.3269146215773957e-01 0 0 0
65 3 3.7746620550394255e-01 8.4873843834900065e-01 4.4867853130225459e+00 2.1820604856201862e+00 0 0 0
66 3 3.0516221248624653e-01 8.7933778475207447e-02 4.7306892221930692e+00 3.4830375265505200e+00 0 0 0
784 4 -7.5380183484297569e-01 -4.8945942155143376e+00 8.7512533020336267e+00 4.4379816554817015e+00 1 0 0
70 3 3.5623277036899464e-01 -1.9387046880449172e+00 6.1673066821856084e+00 4.1665191101767638e+00 0 0 0
72 3 3.8346824491001580e-01 1.5338518981206590e+00 1.6765552887024218e+00 1.3181224219641338e-01 0 0 0
74 3 4.0381093837054560e-01 1.2211134841338953e+00 1.9046088922354958e+00 5.1640492765693011e+00 0 0 0
92 3 3.3135727458028891e-01 1.9042963223062035e+00 5.0977770360065762e+00 4.7826485318485652e+00 0 0 0
98 3 3.6618668043745362e-01 4.5727394336817184e+00 5.5046878975421987e-01 5.1244690515832192e-01 0 0 0
101 3 3.1765827379691597e-01 4.3833762737110504e+00 7.6070042170542107e-01 4.6273978345677280e+00 0 0 0
1003 5 4.3678495533966399e-01 1.2772906935831774e-01 6.5447044105645302e+00 1.7686229292428217e-03 0 0 0
361 3 3.8342690204268082e-01 -1.1882394279397572e+00 8.9090520553814017e+00 7.7043721165056078e-01 0 0 0
365 3 3.7550911914745938e-01 -1.2388154766538939e+00 9.0737066173271632e+00 4.9963698905758500e+00 0 0 0
373 3 3.4491399167770376e-01 -3.3499805938988709e+00 7.3000217002811594e+00 2.2197137936099018e+00 0 0 0
374 3 3.6025581228847392e-01 -1.8335277303331621e+00 7.3171735787257433e+00 1.9127816970152376e+00 0 0 0
581 4 -7.9089850928475780e-01 -1.2918481821494423e+00 3.3184042224553383e+00 7.5535361694378278e-01 0 0 0
587 4 -7.1318013818224468e-01 5.6574927468118474e-01 4.0173542257050059e+00 3.0052996820076339e+00 0 0 0
592 4 -7.6744674381730305e-01 -1.5133669418812321e+00 5.8382392739757467e+00 4.9626460007602251e+00 0 0 0
594 4 -7.5007934360602835e-01 1.1976780443681154e+00 1.3198189002935861e+00 9.7430931059192061e-01 0 0 0
596 4 -7.4000178171857411e-01 9.1417952311167483e-01 1.3449647531991840e+00 4.4182011779200527e+00 0 0 0
607 4 -4.6059793607208499e-01 1.1530494884272535e+00 5.5919323872789679e+00 5.5486162541644080e-01 0 0 0
782 4 -7.9774473216234409e-01 -4.8278152017366782e+00 8.5482358429691434e+00 1.1495300039736336e+00 1 0 0
633 4 -7.4876265125486829e-01 3.7288017968995222e+00 1.9303689887406710e+00 2.7532234521080641e+00 0 0 0
675 4 -4.6848421627352199e-01 6.9173761750848328e-02 7.7250270102197360e+00 9.2122462860612431e-01 0 0 0
57 3 3.7101776418344279e-01 -1.5084488852361391e+00 3.9350986217089248e+00 5.0555878026032417e+00 1 0 0
817 4 -8.0104199767090956e-01 -1.7801808169812321e+00 9.7066526444067502e+00 7.6472853711081745e-01 0 0 0
819 4 -7.9960850235598802e-01 -1.8082817555353499e+00 9.7435448036279926e+00 4.6537131215640688e+00 0 0 0
823 4 -7.7081565349261816e-01 -2.5194327053232155e+00 7.4938149981003654e+00 2.5838112032832967e+00 0 0 0
91 3 3.1641261860150383e-01 4.7487396034418827e-01 5.3964131623271010e+00 5.2351254988247877e+00 0 0 0
316 3 3.9034505426491728e-01 -4.6903807819841106e+00 8.1359504696004716e+00 5.1732645912309687e+00 1 0 0
314 3 3.6217553564159061e-01 -4.5674035204531114e+00 7.9333085731278121e+00 4.0494087905475851e-01 1 0 0
986 1 8.1880006787882320e-01 1.8748191704911105e-01 2.7419213029388927e-02 5.5183404328268795e+00 0 0 0
69 3 3.1368209132489616e-01 -9.9328326712931014e-01 6.6392217531738371e+00 5.1489532773259210e+00 0 0 0
608 4 -7.3549066541701724e-01 1.4124671581327037e+00 5.4099710188480543e+00 5.5441027698781458e+00 0 0 0
583 4 -7.9206786375840954e-01 -1.7289652997155722e+00 3.0057438780185186e+00 4.7677934049264197e+00 1 0 0
9 2 1.3720588318236473e+00 1.2282861215076464e+00 1.6525307699233780e+00 8.3850975233824681e+00 0 0 0
85 3 4.1397848607577759e-01 4.2665137066079231e+00 2.3739689842888474e+00 8.1626610226074074e+00 0 0 0
86 3 3.8194741036982904e-01 4.2719445096393898e+00 1.9479515395813740e+00 9.5616413995165015e+00 0 0 0
866 4 -7.7266434682870733e-01 -3.6444367462323810e+00 6.6777142082996086e+00 1.0321061668674430e+01 1 0 0
113 3 3.3841099571449629e-01 3.1130050773341900e-01 7.9571669661302868e+00 7.1241972681881096e+00 0 0 0
114 3 3.2526356148688523e-01 7.1847471013847652e-01 7.4590780913469956e+00 5.7785875598801342e+00 0 0 0
379 3 3.6612128881504358e-01 -3.5996243241268617e+00 9.6692841298031578e+00 1.0811764520096155e+01 0 0 0
1001 5 4.6270974420111888e-01 1.1487686233337380e-01 6.5527981916442304e+00 1.0812142345304014e+01 0 0 0
143 3 3.5947922791661485e-01 1.3326050224833526e+00 3.7344201371511714e+00 1.0877780986283431e+01 0 0 0
144 3 3.8905768859511219e-01 2.8391926342236307e+00 3.4361477715417825e+00 1.0609564970081415e+01 0 0 0
147 3 3.6292546896219696e-01 1.8692844466305858e+00 3.7249960779083588e+00 6.0924344374247932e+00 0 0 0
148 3 3.8971120276699373e-01 3.2256118426142129e+00 2.9319199970524155e+00 5.9014736083758859e+00 0 0 0
155 3 3.8522237492554040e-01 -2.5378602768030811e-01 4.7579190142133001e+00 8.3891554993690356e+00 0 0 0
156 3 3.5374605217842903e-01 -1.2453021881226949e+00 3.5518292202311570e+00 8.2758625130956727e+00 0 0 0
872 4 -7.3710964543888291e-01 -2.2149024705159404e+00 7.7839314044635168e+00 7.9080569770735636e+00 0 0 0
429 3 3.6515883033673924e-01 -2.7527967791215113e+00 6.8343368379887890e+00 1.0707796142346101e+01 0 0 0
159 3 3.7907012641809129e-01 -8.4847985976716145e-01 1.7411279038922791e+00 1.0567889023936003e+01 1 0 0
441 3 3.5990735597465989e-01 -1.6736551951958747e+00 7.9282483168469788e+00 7.1305115441201563e+00 0 0 0
442 3 3.8577498820182493e-01 -1.5419518404312913e+00 7.3845916270246814e+00 8.5159996068698529e+00 0 0 0
829 4 -7.7608378975805781e-01 -4.2242266938390793e+00 9.6425839834352942e+00 1.0074815544139012e+01 0 0 0
602 4 -7.4706406296911088e-01 3.7505548964104842e+00 1.7898739400642334e+00 8.7205398983249243e+00 0 0 0
605 4 -4.6052166200681371e-01 -1.3009238140619939e-02 6.6215950361542752e+00 9.3129613500439064e+00 0 0 0
657 4 -7.9367683703160852e-01 -5.4895632150113072e-01 1.1023337872120065e+00 9.9474318119362266e+00 0 0 0
624 4 -7.9418761558938722e-01 1.6268192645300417e-01 8.1143583871694993e+00 6.1729026351688772e+00 0 0 0
621 4 -4.6885868119471130e-01 1.5252763974773025e+00 6.9112994294028489e+00 1.1159789571549219e+01 0 0 0
646 4 -7.8024825599533743e-01 1.9088541994654742e+00 3.1600207223206729e+00 1.0362609602062783e+01 0 0 0
648 4 -7.6773810386198815e-01 2.2913603510925982e+00 2.8249212781436315e+00 6.2789437380489028e+00 0 0 0
652 4 -7.3833621412380712e-01 -2.9517847789600715e-01 3.7666627776670754e+00 8.2595140383601997e+00 0 0 0
434 3 3.7360848002545577e-01 -3.2412202438416844e+00 6.1752625343902734e+00 6.0190836557808645e+00 0 0 0
659 4 -7.6645364127590598e-01 -6.8195885559054314e-01 1.2838219919381295e+00 6.6646660436245506e+00 0 0 0
161 3 3.9045661436133250e-01 -1.0623864655211115e+00 1.8988180334135500e+00 6.0398675978848129e+00 0 0 0
115 3 3.8642799202254569e-01 2.2862778132771733e+00 2.5795153339997559e-02 1.0533910553881624e+01 0 0 0
61 3 3.7909533658474176e-01 3.9040050351766720e-01 4.5202274803509059e+00 1.4673973122627286e+01 0 0 0
62 3 3.8228794094179852e-01 1.9273149220046593e-01 4.6644919633672073e+00 1.3151170422902929e+01 0 0 0
119 3 3.7176975205264839e-01 4.6104165881985448e+00 1.0504007001722506e+00 1.1634659577385410e+01 0 0 0
123 3 3.6845363880812976e-01 4.6600391115957454e+00 1.0249370229993215e+00 1.6059314158569265e+01 0 0 0
131 3 3.4953968824038711e-01 2.3164585584667354e+00 2.8733408163149221e+00 1.3967077419550536e+01 0 0 0
132 3 3.9547347065727823e-01 3.5933155879198226e+00 3.1121025861815239e+00 1.3064081932268302e+01 0 0 0
138 3 3.5417318738088199e-01 1.0841518949937747e+00 1.9587836981633089e+00 1.1636471617350791e+01 0 0 0
140 3 3.7296400609865488e-01 1.2515358407124821e+00 1.7525403708213967e+00 1.6077516170001310e+01 0 0 0
164 3 3.6934603907361230e-01 -1.2538505652151479e+00 3.7739803754770698e+00 1.1788561129174351e+01 0 0 0
168 3 3.6151898684009548e-01 -1.6319639123165040e+00 3.9000461561361770e+00 1.5977359952097382e+01 0 0 0
369 3 3.7280452211113502e-01 -2.1752153583585963e+00 7.1326557720209687e+00 1.4300949044792464e+01 0 0 0
370 3 3.8836277585718337e-01 -2.0205154012008752e+00 7.2849587474049526e+00 1.2761411652092868e+01 0 0 0
384 3 3.8024545758717615e-01 -1.3748368191620868e+00 9.3026128755857620e+00 1.1765531849467433e+01 0 0 0
387 3 3.7788526781431475e-01 -1.3817534924185018e+00 8.4632915536778750e+00 1.5928016667341588e+01 0 0 0
673 4 -4.5298787174197341e-01 -8.0982660295320441e-01 7.5474367341036865e+00 1.1428891454341528e+01 0 0 0
585 4 -7.8647963430817969e-01 3.9312987041555614e-01 4.0006218119381689e+00 1.3814050102967482e+01 0 0 0
590 4 -4.5056498998706485e-01 -1.2203268001748544e+00 5.9483724447724544e+00 1.5548031262055162e+01 0 0 0
606 4 -4.7090322021114528e-01 7.2513034199283855e-01 5.0236369980921820e+00 1.6613399482346651e+01 0 0 0
622 4 -4.4231688545489306e-01 6.6799913570893210e-01 7.4002398153068079e+00 1.5931191111816398e+01 0 0 0
629 4 -7.8373405897656689e-01 4.1546419772672465e+00 1.7348388743392032e-01 1.1846778576421714e+01 0 0 0
635 4 -7.7951948104704549e-01 3.1681012880990842e+00 2.5810133638165151e+00 1.3792609055536404e+01 0 0 0
642 4 -7.8780307002718530e-01 9.2007522599213609e-01 1.2891685789115233e+00 1.2322153469026736e+01 0 0 0
644 4 -8.1038891064766128e-01 8.4894587652374642e-01 1.2105602385910397e+00 1.5417265172553099e+01 0 0 0
821 4 -7.5730790349000388e-01 -2.6092349696570949e+00 7.5731816641355110e+00 1.3497480816826601e+01 0 0 0
835 4 -7.6707649802180600e-01 -1.8164217102915998e+00 9.3224317270644459e+00 1.5743794206057927e+01 0 0 0
1002 5 4.4451225904103819e-01 -1.2255941964380312e-01 6.2642374188054486e+00 1.6494218511046988e+01 0 0 0
589 4 -4.4430049465875326e-01 -2.1414464630872976e-01 5.1810375819955752e+00 1.1277443036542858e+01 0 0 0
631 4 -7.8887820835115341e-01 4.0987484163613352e+00 2.8433790650098384e-01 1.5744956758348410e+01 0 1 0
426 3 3.8688383919955099e-01 -4.4528173384651861e+00 7.9376142266576029e+00 1.6210836155028758e+01 0 0 0
32 2 1.3531559254527628e+00 -3.6062237071290011e+00 9.8306111625254431e+00 1.3909414623977481e+01 0 0 0
8 2 1.3572399083284346e+00 2.4796437330456160e+00 3.8651430263288385e-02 1.3841311741638602e+01 0 1 0
12 2 1.3296234378763501e+00 -9.3767454829948393e-01 1.7784943268394966e+00 1.3935059590972005e+01 1 0 0
864 4 -7.9540538392182558e-01 -4.7807325699073377e+00 8.5636602473241563e+00 1.5522975633008826e+01 1 0 0
424 3 3.8821878043739066e-01 -4.6212969981260796e+00 7.9667980438775299e+00 1.1508553559703801e+01 1 0 0
3 2 1.3441472232491043e+00 1.3593067209136673e+00 1.7649317779088840e+00 1.9479440280377585e+01 0 0 0
25 2 1.3829349087196363e+00 -4.4978514783923833e+00 8.0112398000109302e+00 1.9542817840506796e+01 1 0 0
49 3 3.8359593240634937e-01 -8.3597481217303882e-01 1.8957002477105682e+00 2.1840048403874381e+01 0 0 0
77 3 3.8836518765060318e-01 3.3493625561542082e+00 3.0643785408437578e+00 2.1663497862964157e+01 0 0 0
78 3 3.5858316686180608e-01 2.1405226902214189e+00 3.9092326865890095e+00 2.1958222535104220e+01 0 0 0
81 3 3.3518896962551337e-01 3.0729329021353609e+00 3.0102737632870973e+00 1.7118701641994605e+01 0 0 0
82 3 3.6089779735574501e-01 1.6483453858119459e+00 3.6950968177918195e+00 1.7239979980487053e+01 0 0 0
89 3 3.3654859847595525e-01 4.1751907025648585e+00 6.2865163512952849e-01 1.9341142918608618e+01 0 0 0
51 3 3.7382275995910180e-01 -6.7911126304067926e-01 1.8888986057211647e+00 1.7118320599726889e+01 1 0 0
870 4 -7.3337360439037425e-01 -1.9971511433962696e+00 7.6603442766969811e+00 1.9896391227751906e+01 0 0 0
151 3 3.9607831882621836e-01 1.3166896504500114e-01 4.6258350082653665e+00 1.8573537626440690e+01 0 0 0
152 3 3.8776036459006802e-01 3.0485142841763180e-01 4.7600453141262848e+00 2.0021587276971022e+01 0 0 0
320 3 3.6930435752313101e-01 -3.0472276591590113e+00 6.5428479030910358e+00 2.2088562608111896e+01 0 0 0
324 3 3.6781717826457289e-01 -2.8502981621797789e+00 6.6045130360818511e+00 1.6846819404200374e+01 0 0 0
359 3 3.6279987230531180e-01 -3.5904461621352968e+00 9.6566470098782275e+00 1.7169443447566188e+01 0 0 0
437 3 4.2083182297884497e-01 -1.3659907564678293e+00 7.3598438078758752e+00 1.9125159327067994e+01 0 0 0
438 3 4.0095807297617869e-01 -1.4166507484858539e+00 7.5567565895620605e+00 2.0669836012107421e+01 0 0 0
577 4 -7.9535517936356204e-01 -4.7911851219718343e-01 1.3038773007468154e+00 2.1184003763833271e+01 0 0 0
579 4 -7.9423332353524079e-01 -3.4470372193853910e-01 1.3684835267787325e+00 1.7867127322431070e+01 0 0 0
591 4 -4.4823927267809061e-01 -1.2129475516251618e+00 5.9090187046229055e+00 2.2321756545249912e+01 0 0 0
598 4 -7.6623463468862241e-01 2.4091513167429497e+00 3.0860785718557895e+00 2.1431158802986598e+01 0 0 0
600 4 -8.0216342788814110e-01 2.1589781971518871e+00 2.8123647304056933e+00 1.7381318513170946e+01 0 0 0
604 4 -7.4242555700259949e-01 3.9048069035639248e+00 1.5622471601474117e+00 1.9541526853357905e+01 0 0 0
788 4 -7.7785078064495128e-01 -3.7623339809321812e+00 6.7186819852895612e+00 1.7225328374618982e+01 0 0 0
623 4 -4.4509841175398651e-01 5.6014706695380312e-01 7.0029448663440537e+00 2.1041953024664917e+01 0 0 0
650 4 -7.7004722443969520e-01 4.6042412353709272e-01 4.1240636772549912e+00 1.9336154683519133e+01 0 0 0
674 4 -4.2023451137747514e-01 -6.3986375911322169e-01 6.6137499352500297e+00 1.7844930309879775e+01 0 0 0
95 3 3.9709993434608831e-01 2.2958722935008833e+00 1.0207921565181938e-01 1.7152052735042748e+01 0 0 0
815 4 -7.6431896084604534e-01 -4.2077292313565833e+00 9.7189361507577168e+00 1.7944710408448582e+01 0 0 0
357 3 3.7636295140353770e-01 -3.1231127592291550e+00 9.6263627769017486e+00 2.1810720792576099e+01 0 0 0
93 3 3.7655160662937870e-01 2.2667288537969532e+00 8.7473586293088088e-02 2.2015309599316605e+01 0 0 0
985 1 8.1689732154699968e-01 1.7757801481360694e-01 6.6482923354520926e-02 2.2390989609373715e+01 0 0 0
26 2 1.3597537895248131e+00 -6.5749077685253843e+00 1.1878403437943449e+01 2.7480465231503666e+00 1 0 0
994 1 7.9544861638800468e-01 -5.6562843502061551e+00 1.0044292031804808e+01 5.5953895723679121e+00 1 0 0
97 3 4.0788418317132202e-01 -6.9147675232475123e+00 1.8702539750737003e+01 5.6841756837631674e-01 0 0 0
615 4 -7.6474450865274246e-01 -7.5656390318188915e+00 1.9553481693557888e+01 4.6713857006062005e+00 0 0 0
109 3 3.3614526743219197e-01 -9.0200375393040346e+00 1.6508506194555139e+01 2.8678288438514858e+00 0 0 0
110 3 3.7250663790522920e-01 -7.6996055198443329e+00 1.6886749114614933e+01 2.0476896281109198e+00 0 0 0
317 3 3.6524446489088808e-01 -6.9113657582736980e+00 1.4106183459037487e+01 6.0139296297798939e-01 0 0 0
321 3 3.7976035306937300e-01 -7.2970013357053229e+00 1.4274269300530577e+01 4.8742609083974289e+00 0 0 0
329 3 3.5846777421681075e-01 -4.8055336098272319e+00 1.4285560994202934e+01 3.6522789824730681e+00 0 0 0
330 3 4.0736819980007555e-01 -5.1136875383327283e+00 1.4875638062154561e+01 2.2059259675158898e+00 0 0 0
334 3 3.9126998850528666e-01 -7.4386357912876031e+00 1.6663046626478298e+01 4.2321580267284276e+00 0 0 0
336 3 3.9465847643550372e-01 -4.2308559013137641e+00 1.1762305737356613e+01 5.3868234236518542e-01 0 0 0
338 3 3.8778230809885245e-01 -4.3550577248956586e+00 1.1800789110247580e+01 5.1183519345734112e+00 0 0 0
355 3 3.4265245393116744e-01 -5.2933610912315574e+00 1.5705313839825832e+01 5.4479629639916025e+00 0 0 0
362 3 3.9174456005208469e-01 -1.1495201324240867e+00 1.0443615606657684e+01 5.4390389159544106e-01 0 0 0
366 3 3.6659950018129683e-01 -1.3379865913831255e+00 1.0570262235256184e+01 4.8923379119983039e+00 0 0 0
50 3 3.5063399447392402e-01 -1.0080089659472268e+01 1.7928963783464415e+01 3.5909960114785255e-01 1 0 0
578 4 -7.8924547080165253e-01 -1.0485210427396336e+01 1.8420620007963141e+01 1.0981451827843525e+00 0 0 0
580 4 -7.9229882541165786e-01 -1.0582119842091895e+01 1.8331969653987294e+01 4.2700969797342152e+00 0 0 0
613 4 -7.8912316765631796e-01 -7.4726754286708612e+00 1.9443833470069738e+01 7.9471660784575437e-01 0 0 0
102 3 3.6302451130293395e-01 -6.7882182126280988e+00 1.9114301380222539e+01 5.1172518140322758e+00 0 0 0
619 4 -7.6455773376521508e-01 -8.2790202514415334e+00 1.7194887470656735e+01 2.7939880629841016e+00 0 0 0
785 4 -7.7419622758563544e-01 -7.2969780750249038e+00 1.3216504760802627e+01 8.5605891935341338e-01 0 0 0
787 4 -7.9038560318287765e-01 -7.2715145715184279e+00 1.3313943356888691e+01 4.7966189833752217e+00 0 0 0
791 4 -7.2130765526655705e-01 -5.0605888659844318e+00 1.4006109962510783e+01 2.7388302753895699e+00 0 0 0
796 4 -7.8261201294402305e-01 -7.2469927691007534e+00 1.6326524515965946e+01 5.1364532908872267e+00 0 0 0
798 4 -7.9435364650583284e-01 -4.6683350573529658e+00 1.1255037172907427e+01 1.2166491319582973e+00 0 0 0
800 4 -7.7831565182385920e-01 -4.7028294912767441e+00 1.1279255687175922e+01 4.3913114237575188e+00 0 0 0
812 4 -7.5863110926417732e-01 -4.3556435624619407e+00 1.5340161323731349e+01 5.4701913258868897e+00 0 0 0
837 4 -7.1942804427157336e-01 -1.6926735927724712e+00 1.2019546303235527e+01 2.7814429679326738e+00 0 0 0
879 4 -4.6060849588185476e-01 -5.7349584040923745e+00 1.6337923761582996e+01 1.5701473607500185e+00 0 0 0
30 2 1.3439286086244222e+00 -3.3838595618676370e+00 1.0015039875866005e+01 2.7291881593814535e+00 0 0 0
1015 5 4.3385182022501573e-01 -5.6805831801454740e+00 1.6583505237125866e+01 1.0053469954655465e-01 0 0 0
6 2 1.3627601578562452e+00 -9.1196291582225708e+00 1.9695414012367941e+01 2.7080633360753592e+00 0 -1 0
11 2 1.3552130416066270e+00 -1.0323388278859300e+01 1.7850439197969770e+01 8.2950631829139017e+00 1 0 0
33 2 1.3374218210558075e+00 -4.4493012777388516e+00 1.1596856353002725e+01 8.5002968133651944e+00 0 0 0
165 3 3.5788831492097384e-01 -8.2558777877007525e+00 1.6377508924657917e+01 1.0633560018987055e+01 0 0 0
170 3 3.7887253984375968e-01 -8.7719455585183237e+00 1.6417805281782336e+01 5.8744589540351946e+00 0 0 0
177 3 3.5458659003884285e-01 -7.9289126721234009e+00 1.9081308176452538e+01 8.9035871599974339e+00 0 0 0
178 3 3.8336030707426799e-01 -7.1569758862231829e+00 1.7815878024466834e+01 8.8276099842956661e+00 0 0 0
877 4 -4.3595394402555038e-01 -5.8785596183945925e+00 1.6720816424792798e+01 9.5543873337316185e+00 0 0 0
349 3 3.9893959815643992e-01 -1.3816965085526203e+00 1.1752851977742722e+01 7.8784689361120366e+00 0 0 0
266 3 3.9192454224278883e-01 -3.7280493447762142e+00 1.6250577104653473e+01 8.8082297025173446e+00 0 0 0
356 3 3.7065646857091927e-01 -3.9614869816476030e+00 1.5765190653369093e+01 6.2795883715086784e+00 0 0 0
377 3 3.6914576866688825e-01 -6.1619499776327391e+00 1.7991026670544255e+01 7.2448497945279131e+00 0 0 0
378 3 3.3446777466267524e-01 -5.0170303085210284e+00 1.7483916982685702e+01 6.5940463190840148e+00 0 0 0
861 4 -7.7173435648965372e-01 -6.4190466475285621e+00 1.1197879171343004e+01 1.0114915630537284e+01 1 0 0
863 4 -7.8696002139316390e-01 -6.4142861478102242e+00 1.1314294964424528e+01 6.8306138922072508e+00 1 0 0
407 3 3.8659452729225841e-01 -4.0285552092638603e+00 1.3962668978213978e+01 1.0380647720504641e+01 0 0 0
408 3 3.7938239674724650e-01 -2.6832515112662740e+00 1.3188016118999160e+01 1.0366190589595611e+01 0 0 0
411 3 3.6407445122945964e-01 -4.0123496027974621e+00 1.3718161027152666e+01 6.0666794857340332e+00 0 0 0
412 3 3.8974197613262090e-01 -2.4774158992619126e+00 1.3187207140552234e+01 6.2062215512217680e+00 0 0 0
419 3 3.7553343252336502e-01 -6.9316426508656432e+00 1.3333079765883552e+01 8.6759322280955722e+00 0 0 0
420 3 3.8182623082109485e-01 -5.9136723488314864e+00 1.4450858510243496e+01 9.1545969241724823e+00 0 0 0
1013 5 4.3465871546386503e-01 -5.4538372783817808e+00 1.6392012201640519e+01 1.0952903650328436e+01 0 0 0
662 4 -7.8302139098180101e-01 -9.1887131983533727e+00 1.6505069232702805e+01 1.0241554039085104e+01 0 0 0
625 4 -8.4725121956503735e-01 -9.7389552247759710e+00 1.9601943487033513e+01 9.8314668221035237e+00 0 0 0
668 4 -7.6952856309083040e-01 -7.9015614464455872e+00 1.8267315696906021e+01 8.4018556839711565e+00 0 0 0
806 4 -7.4425307871916024e-01 -1.9105317397907724e+00 1.1420059057835850e+01 8.5702653003173435e+00 0 0 0
809 4 -4.7304427555327322e-01 -4.1096109178923479e+00 1.5769645854028992e+01 1.0875589723587764e+01 0 0 0
828 4 -8.0266966521427807e-01 -5.6816225355777101e+00 1.8090438212570785e+01 6.4458239545650962e+00 0 0 0
117 3 4.0199805317501114e-01 -9.0705284666533270e+00 1.9476948821693750e+01 5.9546991870998136e+00 0 -1 0
333 3 3.7264505604079573e-01 -6.7991087618508175e+00 1.7049642087821539e+01 5.6098713802070934e+00 0 0 0
850 4 -7.9598492531837384e-01 -3.6884529916256468e+00 1.3018598190651065e+01 1.0331539030836039e+01 0 0 0
852 4 -7.4869172319342048e-01 -3.4866921791986734e+00 1.2871020930726839e+01 6.3742347287281218e+00 0 0 0
856 4 -7.5422498053672071e-01 -5.9735813302816938e+00 1.3618088277173872e+01 8.6602060139303862e+00 0 0 0
350 3 3.6907070231330497e-01 -1.5024898414056125e+00 1.1928001698812871e+01 9.2938460756255719e+00 0 0 0
423 3 3.8807433937790303e-01 -6.5534790347816534e+00 1.1826103397818827e+01 1.0802035649401791e+01 1 0 0
987 1 7.9132458570671671e-01 -1.1181277010082416e+01 1.9629232939854596e+01 1.1185380206382575e+01 1 0 0
831 4 -7.6008685334529980e-01 -4.0031852289554610e+00 9.9917464900491542e+00 6.6989681808547692e+00 0 0 0
425 3 3.8523492135043824e-01 -6.6352736545688504e+00 1.1985663391566119e+01 6.2321795070198922e+00 1 0 0
381 3 4.0289377548127819e-01 -3.4927605944076365e+00 1.0003287299431488e+01 5.9387785050170789e+00 0 0 0
627 4 -7.5266321062477892e-01 -9.6968563549922173e+00 1.9717741900062798e+01 6.6259271862245068e+00 0 -1 0
848 4 -7.9538349708293143e-01 -5.0648185454353847e+00 1.1076846647616840e+01 1.5550719461598629e+01 0 0 0
396 3 3.9296419760326451e-01 -1.7837323281284077e+00 1.2245784085583043e+01 1.3389161985730468e+01 0 0 0
105 3 3.8310261689216663e-01 -7.3323143074466088e+00 1.7109203910818522e+01 1.4736549864732646e+01 0 0 0
106 3 3.5933145667163707e-01 -7.1744355604655432e+00 1.7194237938052773e+01 1.3264607925159989e+01 0 0 0
120 3 3.8000585011251969e-01 -6.7421321937577741e+00 1.9200721489935390e+01 1.1639154270985273e+01 0 0 0
124 3 4.0004281977154926e-01 -7.0225671580584725e+00 1.9185418611134775e+01 1.6131940067405456e+01 0 0 0
839 4 -7.7424240931439503e-01 -2.5318345110337361e+00 1.2130438473256069e+01 1.4017918997121802e+01 0 0 0
846 4 -8.0943615644261102e-01 -4.9700169548729587e+00 1.1225510964666825e+01 1.2336183734568690e+01 0 0 0
325 3 3.7915156654086352e-01 -4.7287411240089252e+00 1.4707999920389382e+01 1.4242090840628533e+01 0 0 0
326 3 4.0239312956078188e-01 -4.5246545316110947e+00 1.4980560982645159e+01 1.2737734367783247e+01 0 0 0
383 3 3.8805006975660894e-01 -1.4432955185313521e+00 1.0802814697750065e+01 1.1605290035899669e+01 0 0 0
988 1 8.0801723850083296e-01 -1.1275951131266245e+01 1.9719650966382673e+01 1.6718484980145632e+01 1 0 0
395 3 3.8070852442974606e-01 -3.2120752808682171e+00 1.2866092339537994e+01 1.3809179707421949e+01 0 0 0
402 3 3.8449880994463992e-01 -4.7091244523906388e+00 1.1792555049964413e+01 1.1630632966963177e+01 0 0 0
404 3 3.7864277406628682e-01 -4.8946250720208297e+00 1.1675963305815776e+01 1.6268031053650827e+01 0 0 0
428 3 3.8920446196968461e-01 -7.1125709633553065e+00 1.3910332681908336e+01 1.1892486610127262e+01 0 0 0
431 3 4.0371576117173968e-01 -6.9593008640785960e+00 1.4222107305785338e+01 1.5821172636869735e+01 0 0 0
867 4 -7.7360920604260641e-01 -7.3411858405570873e+00 1.3295971185098457e+01 1.5681221381383571e+01 0 0 0
617 4 -7.6609966476467684e-01 -7.7330926403893425e+00 1.7576696926189985e+01 1.4003237932675402e+01 0 0 0
833 4 -7.9472120077226716e-01 -1.9481694456685492e+00 1.0083140249076022e+01 1.2017853912206043e+01 0 0 0
658 4 -8.1021669114994443e-01 -1.0131274851981779e+01 1.8399867320343379e+01 1.2215033959903431e+01 0 0 0
660 4 -7.7823378253505027e-01 -1.0347918478266013e+01 1.8501297346841696e+01 1.5604661303352142e+01 1 0 0
789 4 -7.1077662154382060e-01 -4.1734504977398812e+00 1.4474548391034451e+01 1.3458646551322637e+01 0 0 0
793 4 -4.6076714415649489e-01 -6.4021819578192707e+00 1.5438843689095732e+01 1.1579969248906892e+01 0 0 0
825 4 -4.6013323626394059e-01 -5.3801731563127211e+00 1.7601407241468269e+01 1.1828713340110903e+01 0 0 0
826 4 -4.5955382167293390e-01 -5.7034179825555995e+00 1.5475110045279491e+01 1.5661217851552003e+01 0 0 0
160 3 3.8614578390238363e-01 -9.8741483875744542e+00 1.7828604536181668e+01 1.1495140308051491e+01 0 0 0
162 3 4.0442225442291374e-01 -9.9094806146774204e+00 1.8127059673337367e+01 1.6301967040791087e+01 0 0 0
216 3 3.6205398592364924e-01 -4.8689342668269235e+00 1.7917677965998656e+01 1.3659150217152435e+01 0 0 0
865 4 -7.8484536614374589e-01 -7.5145262008001792e+00 1.2990516684419834e+01 1.2119409410603035e+01 1 0 0
388 3 3.7534586311297119e-01 -1.0774885666073208e+00 9.9957464722741936e+00 1.5684282224523303e+01 0 0 0
878 4 -4.7091622741565409e-01 -6.6304853076982493e+00 1.7509847239595242e+01 1.6674932226948290e+01 0 0 0
995 1 8.0509494820895511e-01 -5.6884900287517342e+00 9.8695387132548884e+00 1.1241793628449742e+01 1 0 0
215 3 3.7153466256792372e-01 -4.6974288226930421e+00 1.7922204610974731e+01 1.5237708473546823e+01 0 0 0
354 3 4.0516717121535334e-01 -1.3844625697989947e+00 1.2190414071294903e+01 1.9649891206037452e+01 0 0 0
27 2 1.3600746838796518e+00 -4.4812534004725642e+00 1.1718241102132215e+01 1.9595908661875768e+01 0 0 0
56 3 3.8040085519782285e-01 -8.7126831606953239e+00 1.5886038243536026e+01 2.1531598431141528e+01 0 0 0
60 3 3.8064374771414827e-01 -8.3253486737977589e+00 1.6704428039971646e+01 1.7412940552539702e+01 0 0 0
813 4 -7.6580224845187739e-01 -3.8098562510880969e+00 9.9463002825567219e+00 2.1174404705845660e+01 0 0 0
173 3 3.9413569374933138e-01 -7.0418705300274418e+00 1.7268040332666565e+01 1.9053279954338333e+01 0 0 0
174 3 4.0170612218813118e-01 -7.0271497077361698e+00 1.7483292450094456e+01 2.0497949592967871e+01 0 0 0
993 1 7.8958324139161606e-01 -5.3550599481628467e+00 9.9102690514373570e+00 2.2305219999123739e+01 1 0 -1
609 4 -7.9614433530398998e-01 -9.8050499395368060e+00 1.9690527153810308e+01 2.1284417911269355e+01 0 -1 0
341 3 3.7568994780165921e-01 -2.4899978011316097e+00 1.3051368422938875e+01 2.1856841135079890e+01 0 0 0
342 3 3.6804416290888675e-01 -3.7687746779890796e+00 1.3901902059885288e+01 2.1474503067319681e+01 0 0 0
345 3 3.5155572946778091e-01 -3.5615200683658461e+00 1.3521449531062027e+01 1.7066509857326452e+01 0 0 0
346 3 3.8586099607214414e-01 -4.7928974788682801e+00 1.4195262643361344e+01 1.7607451026716408e+01 0 0 0
313 3 3.9866822147617431e-01 -6.6704488494960446e+00 1.1491330948842242e+01 2.1983445738806385e+01 1 0 0
315 3 3.6793811823740891e-01 -6.5065811017714488e+00 1.1760120513490785e+01 1.7132972003985973e+01 0 0 0
811 4 -4.6774504503035746e-01 -4.6737500480293299e+00 1.5662945390218725e+01 2.1901340094421872e+01 0 0 0
415 3 3.8672468215795813e-01 -6.0482510146625774e+00 1.4457613225414525e+01 1.9263259557935971e+01 0 0 0
416 3 4.0540516814818195e-01 -5.5464014934584149e+00 1.4710706528946677e+01 2.0751747932228234e+01 0 0 0
584 4 -7.7383156036394729e-01 -9.2624079325226418e+00 1.6521215992795135e+01 1.7664366832949440e+01 0 0 0
854 4 -7.4716475107921343e-01 -5.6579269769836920e+00 1.3982555857005600e+01 2.0076990548475635e+01 0 0 0
666 4 -7.6096018897667306e-01 -7.3841023081645707e+00 1.7868192633770349e+01 1.9683656392753974e+01 0 0 0
353 3 3.7555909490326211e-01 -1.8262705208885972e+00 1.2805020001345547e+01 1.8309268231338525e+01 0 0 0
794 4 -4.6077138945667684e-01 -6.3849863351248164e+00 1.5512254954523286e+01 1.7970999084323509e+01 0 0 0
795 4 -4.7307472078303242e-01 -7.0365145358462922e+00 1.6288461026298215e+01 2.1934982206542188e+01 0 0 0
802 4 -7.7172058301101576e-01 -3.4509333789459440e+00 1.2951551920036136e+01 2.1536532685395990e+01 0 0 0
804 4 -7.7860733473086363e-01 -4.3501362871867446e+00 1.3318196792681437e+01 1.7561163055903492e+01 0 0 0
808 4 -7.5483530842550228e-01 -2.0865899703587418e+00 1.2101950244578294e+01 1.8916502713164419e+01 0 0 0
810 4 -4.7876503075488047e-01 -4.3613589104830321e+00 1.6760953533579290e+01 1.7292792706316323e+01 0 0 0
1014 5 4.3436835260933426e-01 -5.7642072611682265e+00 1.6326249235850227e+01 1.6889634142185059e+01 0 0 0
781 4 -8.0048480795285204e-01 -6.3211466669867864e+00 1.1105317332989998e+01 2.1186475777336362e+01 1 0 0
827 4 -4.5242047425251353e-01 -5.3379608269732461e+00 1.8017133213242623e+01 2.2236822219094385e+01 0 0 0
783 4 -7.5774766052798948e-01 -6.2146935798857399e+00 1.1202981507525092e+01 1.7873282355487444e+01 0 0 0
611 4 -8.2517488274602568e-01 -9.5638757754023143e+00 1.9473943412688218e+01 1.7825919142428766e+01 0 0 0
1 2 1.3686283595973321e+00 -1.0013224664606494e+01 1.7930969813572521e+01 1.9549815915195094e+01 0 0 0
40 2 1.3719876370206097e+00 4.6932781668111270e+00 8.1909817010094130e+00 2.7535154115749410e+00 0 0 0
905 4 -7.6794237618238970e-01 4.0067922464714503e+00 6.7762772323603278e+00 4.7476434635269724e+00 0 0 0
228 3 3.7013689351227286e-01 9.2456675415579905e+00 4.5438067669719903e-02 5.0881410181938280e+00 0 1 0
186 3 3.9190846271734403e-01 8.9349912836664913e+00 3.7113138013346969e+00 9.8213995002644738e-01 0 0 0