# DFF generated LAMMPS data file

25 atoms
22 bonds
38 angles
36 dihedrals
0 impropers

11  atom types
9  bond types
14  angle types
8  dihedral types
0  improper types

      0.0000     80.0000   xlo xhi
      0.0000     80.0000   ylo yhi
      0.0000     80.0000   zlo zhi

Masses

           1     32.0660   #   s_4o2
           2     15.9994   #   o_2
           3     15.9994   #   o_1
           4     14.0067   #   n_2-
           5      6.9410   #   li+
           6      1.0079   #   h_1o
           7      1.0079   #   h_1
           8     18.9984   #   f_1
           9     12.0110   #   c_4o
          10     12.0110   #   c_4h3
          11     12.0110   #   c_4f3

Atoms

           1           1           5     0.77500    35.00000    45.00000    45.00000	      #     Li1
           2           2          11     0.09300    35.89100    40.05200    42.91000	      #     C2
           3           2          11     0.09300    39.99800    44.08800    41.76500	      #     C3
           4           2           1     0.77500    37.03800    41.24000    43.89500	      #     S4
           5           2           1     0.77500    39.15100    43.30300    43.30400	      #     S5
           6           2           4    -0.49600    37.94800    42.13600    42.58700	      #     N6
           7           2           3    -0.38750    38.20400    40.23100    44.80700	      #     O7
           8           2           3    -0.38750    36.01300    42.40400    44.77200	      #     O8
           9           2           3    -0.38750    40.39500    42.36900    44.19400	      #     O9
          10           2           3    -0.38750    38.25200    44.59500    44.15400	      #     O10
          11           2           8    -0.07750    35.15400    39.27100    43.84900	      #     F11
          12           2           8    -0.07750    35.00000    40.83700    42.11000	      #     F12
          13           2           8    -0.07750    36.69100    39.20800    42.08400	      #     F13
          14           2           8    -0.07750    39.00300    44.77000    40.99700	      #     F14
          15           2           8    -0.07750    40.99000    45.00100    42.21800	      #     F15
          16           2           8    -0.07750    40.60400    43.05100    40.99800	      #     F16
          17           3          10    -0.12900     1.65600     1.08600    77.85400	      #     C17
          18           3           7     0.04300     1.50100     0.00100    78.01400	      #     H18
          19           3           7     0.04300     0.83600     1.43600    77.19500	      #     H19
          20           3           7     0.04300     2.60000     1.20600    77.29300	      #     H20
          21           3           9     0.17900     1.67000     1.84300    79.18100	      #     C21
          22           3           7     0.04300     2.47000     1.49200    79.86900	      #     H22
          23           3           7     0.04300     1.80100     2.94300    79.05500	      #     H23
          24           3           2    -0.68300     0.41500     1.62700    79.82600	      #     O24
          25           3           6     0.41800     0.29600     0.69000    79.97700	      #     H25

Bonds

           1           9           2          13
           2           9           2          12
           3           8           2           4
           4           9           2          11
           5           9           3          14
           6           9           3          15
           7           9           3          16
           8           8           3           5
           9           1           4           8
          10           1           4           7
          11           2           4           6
          12           1           5          10
          13           1           5           9
          14           2           5           6
          15           6          17          18
          16           6          17          19
          17           6          17          20
          18           7          17          21
          19           4          21          24
          20           5          21          22
          21           5          21          23
          22           3          24          25

Angles

           1           8          13           2          12
           2           7          13           2           4
           3           8          13           2          11
           4           7          12           2           4
           5           8          12           2          11
           6           7          11           2           4
           7           8          14           3          15
           8           8          14           3          16
           9           7          14           3           5
          10           8          15           3          16
          11           7          15           3           5
          12           7          16           3           5
          13          13           2           4           8
          14          13           2           4           7
          15          14           2           4           6
          16           2           8           4           7
          17           3           6           4           8
          18           3           6           4           7
          19          13           3           5          10
          20          13           3           5           9
          21          14           3           5           6
          22           2          10           5           9
          23           3           6           5          10
          24           3           6           5           9
          25           1           4           6           5
          26           6          18          17          19
          27           6          18          17          20
          28          10          21          17          18
          29           6          19          17          20
          30          10          21          17          19
          31          10          21          17          20
          32          11          17          21          24
          33          12          17          21          22
          34          12          17          21          23
          35           4          22          21          24
          36           4          23          21          24
          37           5          22          21          23
          38           9          21          24          25

Dihedrals

           1           5          13           2           4           8
           2           5          13           2           4           7
           3           6          13           2           4           6
           4           5          12           2           4           8
           5           5          12           2           4           7
           6           6          12           2           4           6
           7           5          11           2           4           8
           8           5          11           2           4           7
           9           6          11           2           4           6
          10           5          14           3           5          10
          11           5          14           3           5           9
          12           6          14           3           5           6
          13           5          15           3           5          10
          14           5          15           3           5           9
          15           6          15           3           5           6
          16           5          16           3           5          10
          17           5          16           3           5           9
          18           6          16           3           5           6
          19           8           2           4           6           5
          20           1           8           4           6           5
          21           1           7           4           6           5
          22           8           3           5           6           4
          23           1          10           5           6           4
          24           1           9           5           6           4
          25           3          18          17          21          24
          26           4          18          17          21          22
          27           4          18          17          21          23
          28           3          19          17          21          24
          29           4          19          17          21          22
          30           4          19          17          21          23
          31           3          20          17          21          24
          32           4          20          17          21          22
          33           4          20          17          21          23
          34           7          17          21          24          25
          35           2          22          21          24          25
          36           2          23          21          24          25

Pair Coeffs

           1      0.2500      3.5458
           2      0.1700      3.1200
           3      0.2100      2.9600
           4      0.1700      3.2518
           5      0.0250      2.1836
           6      0.0001      0.0001
           7      0.0220      2.4033
           8      0.0660      2.9809
           9      0.0660      3.5012
          10      0.0774      3.7502
          11      0.0660      3.5012

Bond Coeffs

           1    654.1653      1.4604
           2    200.0000      1.8490
           3    582.5573      0.9694
           4    259.1432      1.4336
           5    360.2406      1.0967
           6    360.2406      1.0967
           7    214.5121      1.5310
           8    195.2188      1.8712
           9    363.9401      1.3412

Angle Coeffs

           1     39.3279    118.7750
           2     89.2023    127.9295
           3    124.4233    113.5331
           4     52.9693    106.3971
           5     37.7031    102.2845
           6     37.7031    102.2845
           7     63.9569    101.0699
           8     86.2489    105.5285
           9     58.0517    106.2556
          10     47.7983    106.4997
          11     67.2872    109.5826
          12     47.7983    106.4997
          13    118.8021    113.4598
          14     88.7396    109.1199

Dihedral Coeffs

           1      0.0000      0.0000      0.7714      0.0000
           2      2.7654     -1.8160      0.6232      0.0000
           3     -0.1758      0.3118      0.2334      0.0000
           4     -0.6492      0.1394      0.3190      0.0000
           5      0.0000      0.0000      0.3880      0.0000
           6      0.0000      0.0000      0.3880      0.0000
           7      3.6492     -1.7978      0.7554      0.0000
           8      0.0000      0.0000      0.7714      0.0000
