 Entering Gaussian System, Link 0=g03
 Input=sio4.gjf
 Output=sio4.log
 Initial command:
 /state/partition1/apps/g03sun/l1.exe /state/partition1/jobs/chengtao/GAU/24096/Gau-9704.inp -scrdir=/state/partition1/jobs/chengtao/GAU/24096/
 Entering Link 1 = /state/partition1/apps/g03sun/l1.exe PID=      9705.
  
 Copyright (c) 1988,1990,1992,1993,1995,1998,2003,2004, Gaussian, Inc.
                  All Rights Reserved.
  
 This is the Gaussian(R) 03 program.  It is based on the
 the Gaussian(R) 98 system (copyright 1998, Gaussian, Inc.),
 the Gaussian(R) 94 system (copyright 1995, Gaussian, Inc.),
 the Gaussian 92(TM) system (copyright 1992, Gaussian, Inc.),
 the Gaussian 90(TM) system (copyright 1990, Gaussian, Inc.),
 the Gaussian 88(TM) system (copyright 1988, Gaussian, Inc.),
 the Gaussian 86(TM) system (copyright 1986, Carnegie Mellon
 University), and the Gaussian 82(TM) system (copyright 1983,
 Carnegie Mellon University). Gaussian is a federally registered
 trademark of Gaussian, Inc.
  
 This software contains proprietary and confidential information,
 including trade secrets, belonging to Gaussian, Inc.
  
 This software is provided under written license and may be
 used, copied, transmitted, or stored only in accord with that
 written license.
  
 The following legend is applicable only to US Government
 contracts under FAR:
  
                    RESTRICTED RIGHTS LEGEND
  
 Use, reproduction and disclosure by the US Government is
 subject to restrictions as set forth in subparagraphs (a)
 and (c) of the Commercial Computer Software - Restricted
 Rights clause in FAR 52.227-19.
  
 Gaussian, Inc.
 340 Quinnipiac St., Bldg. 40, Wallingford CT 06492
  
  
 ---------------------------------------------------------------
 Warning -- This program may not be used in any manner that
 competes with the business of Gaussian, Inc. or will provide
 assistance to any competitor of Gaussian, Inc.  The licensee
 of this program is prohibited from giving any competitor of
 Gaussian, Inc. access to this program.  By using this program,
 the user acknowledges that Gaussian, Inc. is engaged in the
 business of creating and licensing software in the field of
 computational chemistry and represents and warrants to the
 licensee that it is not a competitor of Gaussian, Inc. and that
 it will not use this program in any manner prohibited above.
 ---------------------------------------------------------------
  

 Cite this work as:
 Gaussian 03, Revision D.02,
 M. J. Frisch, G. W. Trucks, H. B. Schlegel, G. E. Scuseria, 
 M. A. Robb, J. R. Cheeseman, J. A. Montgomery, Jr., T. Vreven, 
 K. N. Kudin, J. C. Burant, J. M. Millam, S. S. Iyengar, J. Tomasi, 
 V. Barone, B. Mennucci, M. Cossi, G. Scalmani, N. Rega, 
 G. A. Petersson, H. Nakatsuji, M. Hada, M. Ehara, K. Toyota, 
 R. Fukuda, J. Hasegawa, M. Ishida, T. Nakajima, Y. Honda, O. Kitao, 
 H. Nakai, M. Klene, X. Li, J. E. Knox, H. P. Hratchian, J. B. Cross, 
 V. Bakken, C. Adamo, J. Jaramillo, R. Gomperts, R. E. Stratmann, 
 O. Yazyev, A. J. Austin, R. Cammi, C. Pomelli, J. W. Ochterski, 
 P. Y. Ayala, K. Morokuma, G. A. Voth, P. Salvador, J. J. Dannenberg, 
 V. G. Zakrzewski, S. Dapprich, A. D. Daniels, M. C. Strain, 
 O. Farkas, D. K. Malick, A. D. Rabuck, K. Raghavachari, 
 J. B. Foresman, J. V. Ortiz, Q. Cui, A. G. Baboul, S. Clifford, 
 J. Cioslowski, B. B. Stefanov, G. Liu, A. Liashenko, P. Piskorz, 
 I. Komaromi, R. L. Martin, D. J. Fox, T. Keith, M. A. Al-Laham, 
 C. Y. Peng, A. Nanayakkara, M. Challacombe, P. M. W. Gill, 
 B. Johnson, W. Chen, M. W. Wong, C. Gonzalez, and J. A. Pople, 
 Gaussian, Inc., Wallingford CT, 2004.
 
 ******************************************
 Gaussian 03:  EM64T-G03RevD.02  1-Mar-2006
                 4-Oct-2012 
 ******************************************
 %nprocshared=8
 Will use up to    8 processors via shared memory.
 -----------------------
 #n B3LYP/6-31G(d,p) Opt
 -----------------------
 1/14=-1,18=20,26=3,38=1/1,3;
 2/9=110,17=6,18=5,40=1/2;
 3/5=1,6=6,7=101,11=2,16=1,25=1,30=1,74=-5/1,2,3;
 4//1;
 5/5=2,38=5/2;
 6/7=2,8=2,9=2,10=2,28=1/1;
 7//1,2,3,16;
 1/14=-1,18=20/3(3);
 2/9=110/2;
 6/7=2,8=2,9=2,10=2,19=2,28=1/1;
 99//99;
 2/9=110/2;
 3/5=1,6=6,7=101,11=2,16=1,25=1,30=1,74=-5/1,2,3;
 4/5=5,16=3/1;
 5/5=2,38=5/2;
 7//1,2,3,16;
 1/14=-1,18=20/3(-5);
 2/9=110/2;
 6/7=2,8=2,9=2,10=2,19=2,28=1/1;
 99/9=1/99;
 ----
 sio4
 ----
 Symbolic Z-matrix:
 Charge = -2 Multiplicity = 1
 Si                   -2.93259   0.19433   0.02013 
 O                    -1.28286   0.22648   0.03996 
 O                    -3.51305   1.73963   0.03977 
 O                    -3.48322  -0.61669   1.34746 
 O                    -3.4517   -0.57057  -1.34678 
 

 GradGradGradGradGradGradGradGradGradGradGradGradGradGradGradGradGradGrad
 Berny optimization.
 Initialization pass.
                           ----------------------------
                           !    Initial Parameters    !
                           ! (Angstroms and Degrees)  !
 --------------------------                            --------------------------
 ! Name  Definition              Value          Derivative Info.                !
 --------------------------------------------------------------------------------
 ! R1    R(1,2)                  1.6502         estimate D2E/DX2                !
 ! R2    R(1,3)                  1.6508         estimate D2E/DX2                !
 ! R3    R(1,4)                  1.6501         estimate D2E/DX2                !
 ! R4    R(1,5)                  1.6501         estimate D2E/DX2                !
 ! A1    A(2,1,3)              109.4596         estimate D2E/DX2                !
 ! A2    A(2,1,4)              109.4827         estimate D2E/DX2                !
 ! A3    A(2,1,5)              109.4805         estimate D2E/DX2                !
 ! A4    A(3,1,4)              109.4618         estimate D2E/DX2                !
 ! A5    A(3,1,5)              109.4596         estimate D2E/DX2                !
 ! A6    A(4,1,5)              109.4831         estimate D2E/DX2                !
 --------------------------------------------------------------------------------
 Trust Radius=3.00D-01 FncErr=1.00D-07 GrdErr=1.00D-06
 Number of steps in this run=  20 maximum allowed number of steps= 100.
 GradGradGradGradGradGradGradGradGradGradGradGradGradGradGradGradGradGrad

                          Input orientation:                          
 ---------------------------------------------------------------------
 Center     Atomic     Atomic              Coordinates (Angstroms)
 Number     Number      Type              X           Y           Z
 ---------------------------------------------------------------------
    1         14             0       -2.932590    0.194330    0.020130
    2          8             0       -1.282860    0.226480    0.039960
    3          8             0       -3.513050    1.739630    0.039770
    4          8             0       -3.483220   -0.616690    1.347460
    5          8             0       -3.451700   -0.570570   -1.346780
 ---------------------------------------------------------------------
                    Distance matrix (angstroms):
                    1          2          3          4          5
     1  Si   0.000000
     2  O    1.650162   0.000000
     3  O    1.650840   2.695064   0.000000
     4  O    1.650076   2.694824   2.695030   0.000000
     5  O    1.650149   2.694848   2.695053   2.694819   0.000000
 Stoichiometry    O4Si(2-)
 Framework group  C1[X(O4Si)]
 Deg. of freedom     9
 Full point group                 C1
 Largest Abelian subgroup         C1      NOp   1
 Largest concise Abelian subgroup C1      NOp   1
                         Standard orientation:                         
 ---------------------------------------------------------------------
 Center     Atomic     Atomic              Coordinates (Angstroms)
 Number     Number      Type              X           Y           Z
 ---------------------------------------------------------------------
    1         14             0        0.000276   -0.000011    0.000038
    2          8             0        0.607194    1.386990   -0.656403
    3          8             0       -1.648910    0.037091   -0.063833
    4          8             0        0.486937   -0.123808    1.571849
    5          8             0        0.554296   -1.300253   -0.851680
 ---------------------------------------------------------------------
 Rotational constants (GHZ):      4.3508346      4.3503319      4.3502744
 Standard basis: 6-31G(d,p) (6D, 7F)
 There are    79 symmetry adapted basis functions of A   symmetry.
 Integral buffers will be    131072 words long.
 Raffenetti 2 integral format.
 Two-electron integral symmetry is turned on.
    79 basis functions,   164 primitive gaussians,    79 cartesian basis functions
    24 alpha electrons       24 beta electrons
       nuclear repulsion energy       219.0550112511 Hartrees.
 NAtoms=    5 NActive=    5 NUniq=    5 SFac= 7.50D-01 NAtFMM=   80 NAOKFM=F Big=F
 One-electron integrals computed using PRISM.
 PrsmSu:  requested number of processors reduced to:   7 ShMem   1 Linda.
 NBasis=    79 RedAO= T  NBF=    79
 NBsUse=    79 1.00D-06 NBFU=    79
 Harris functional with IExCor=  402 diagonalized for initial guess.
 ExpMin= 7.78D-02 ExpMax= 1.61D+04 ExpMxC= 2.43D+03 IAcc=2 IRadAn=         4 AccDes= 0.00D+00
 HarFok:  IExCor= 402 AccDes= 0.00D+00 IRadAn=         4 IDoV=1
 ScaDFX=  1.000000  1.000000  1.000000  1.000000
 CalDSu:  requested number of processors reduced to:   5 ShMem   1 Linda.
 Initial guess orbital symmetries:
       Occupied  (A) (A) (A) (A) (A) (A) (A) (A) (A) (A) (A) (A)
                 (A) (A) (A) (A) (A) (A) (A) (A) (A) (A) (A) (A)
       Virtual   (A) (A) (A) (A) (A) (A) (A) (A) (A) (A) (A) (A)
                 (A) (A) (A) (A) (A) (A) (A) (A) (A) (A) (A) (A)
                 (A) (A) (A) (A) (A) (A) (A) (A) (A) (A) (A) (A)
                 (A) (A) (A) (A) (A) (A) (A) (A) (A) (A) (A) (A)
                 (A) (A) (A) (A) (A) (A) (A)
 The electronic state of the initial guess is 1-A.
 Requested convergence on RMS density matrix=1.00D-08 within 128 cycles.
 Requested convergence on MAX density matrix=1.00D-06.
 Requested convergence on             energy=1.00D-06.
 No special actions if energy rises.
 Integral accuracy reduced to 1.0D-05 until final iterations.
 PrsmSu:  requested number of processors reduced to:   7 ShMem   1 Linda.
 CalDSu:  requested number of processors reduced to:   6 ShMem   1 Linda.
 PrsmSu:  requested number of processors reduced to:   7 ShMem   1 Linda.
 CalDSu:  requested number of processors reduced to:   6 ShMem   1 Linda.
 PrsmSu:  requested number of processors reduced to:   7 ShMem   1 Linda.
 CalDSu:  requested number of processors reduced to:   6 ShMem   1 Linda.
 PrsmSu:  requested number of processors reduced to:   7 ShMem   1 Linda.
 CalDSu:  requested number of processors reduced to:   6 ShMem   1 Linda.
 EnCoef did     2 forward-backward iterations
 Problem detected with inexpensive integrals.
 Switching to full accuracy and repeating last cycle.
 PrsmSu:  requested number of processors reduced to:   7 ShMem   1 Linda.
 CalDSu:  requested number of processors reduced to:   6 ShMem   1 Linda.
 PrsmSu:  requested number of processors reduced to:   7 ShMem   1 Linda.
 CalDSu:  requested number of processors reduced to:   6 ShMem   1 Linda.
 PrsmSu:  requested number of processors reduced to:   7 ShMem   1 Linda.
 CalDSu:  requested number of processors reduced to:   6 ShMem   1 Linda.
 PrsmSu:  requested number of processors reduced to:   7 ShMem   1 Linda.
 CalDSu:  requested number of processors reduced to:   6 ShMem   1 Linda.
 PrsmSu:  requested number of processors reduced to:   7 ShMem   1 Linda.
 CalDSu:  requested number of processors reduced to:   6 ShMem   1 Linda.
 EnCoef did     2 forward-backward iterations
 PrsmSu:  requested number of processors reduced to:   7 ShMem   1 Linda.
 CalDSu:  requested number of processors reduced to:   6 ShMem   1 Linda.
 EnCoef did     2 forward-backward iterations
 PrsmSu:  requested number of processors reduced to:   7 ShMem   1 Linda.
 CalDSu:  requested number of processors reduced to:   6 ShMem   1 Linda.
 EnCoef did     4 forward-backward iterations
 PrsmSu:  requested number of processors reduced to:   7 ShMem   1 Linda.
 CalDSu:  requested number of processors reduced to:   6 ShMem   1 Linda.
 EnCoef did   100 forward-backward iterations
 PrsmSu:  requested number of processors reduced to:   7 ShMem   1 Linda.
 CalDSu:  requested number of processors reduced to:   6 ShMem   1 Linda.
 EnCoef did     2 forward-backward iterations
 PrsmSu:  requested number of processors reduced to:   7 ShMem   1 Linda.
 CalDSu:  requested number of processors reduced to:   6 ShMem   1 Linda.
 PrsmSu:  requested number of processors reduced to:   7 ShMem   1 Linda.
 CalDSu:  requested number of processors reduced to:   6 ShMem   1 Linda.
 PrsmSu:  requested number of processors reduced to:   7 ShMem   1 Linda.
 CalDSu:  requested number of processors reduced to:   6 ShMem   1 Linda.
 PrsmSu:  requested number of processors reduced to:   7 ShMem   1 Linda.
 CalDSu:  requested number of processors reduced to:   6 ShMem   1 Linda.
 PrsmSu:  requested number of processors reduced to:   7 ShMem   1 Linda.
 CalDSu:  requested number of processors reduced to:   6 ShMem   1 Linda.
 PrsmSu:  requested number of processors reduced to:   7 ShMem   1 Linda.
 CalDSu:  requested number of processors reduced to:   6 ShMem   1 Linda.
 PrsmSu:  requested number of processors reduced to:   7 ShMem   1 Linda.
 CalDSu:  requested number of processors reduced to:   6 ShMem   1 Linda.
 PrsmSu:  requested number of processors reduced to:   7 ShMem   1 Linda.
 CalDSu:  requested number of processors reduced to:   6 ShMem   1 Linda.
 PrsmSu:  requested number of processors reduced to:   7 ShMem   1 Linda.
 CalDSu:  requested number of processors reduced to:   6 ShMem   1 Linda.
 PrsmSu:  requested number of processors reduced to:   7 ShMem   1 Linda.
 CalDSu:  requested number of processors reduced to:   6 ShMem   1 Linda.
 Restarting incremental Fock formation.
 PrsmSu:  requested number of processors reduced to:   7 ShMem   1 Linda.
 CalDSu:  requested number of processors reduced to:   6 ShMem   1 Linda.
 PrsmSu:  requested number of processors reduced to:   7 ShMem   1 Linda.
 CalDSu:  requested number of processors reduced to:   6 ShMem   1 Linda.
 PrsmSu:  requested number of processors reduced to:   7 ShMem   1 Linda.
 CalDSu:  requested number of processors reduced to:   6 ShMem   1 Linda.
 PrsmSu:  requested number of processors reduced to:   7 ShMem   1 Linda.
 CalDSu:  requested number of processors reduced to:   6 ShMem   1 Linda.
 PrsmSu:  requested number of processors reduced to:   7 ShMem   1 Linda.
 CalDSu:  requested number of processors reduced to:   6 ShMem   1 Linda.
 SCF Done:  E(RB+HF-LYP) =  -590.243126423     A.U. after   28 cycles
             Convg  =    0.5228D-08             -V/T =  2.0058
             S**2   =   0.0000

 **********************************************************************

            Population analysis using the SCF density.

 **********************************************************************

 Orbital symmetries:
       Occupied  (A) (A) (A) (A) (A) (A) (A) (A) (A) (A) (A) (A)
                 (A) (A) (A) (A) (A) (A) (A) (A) (A) (A) (A) (A)
       Virtual   (A) (A) (A) (A) (A) (A) (A) (A) (A) (A) (A) (A)
                 (A) (A) (A) (A) (A) (A) (A) (A) (A) (A) (A) (A)
                 (A) (A) (A) (A) (A) (A) (A) (A) (A) (A) (A) (A)
                 (A) (A) (A) (A) (A) (A) (A) (A) (A) (A) (A) (A)
                 (A) (A) (A) (A) (A) (A) (A)
 The electronic state is 1-A.
 Alpha  occ. eigenvalues --  -65.71266 -18.70405 -18.70398 -18.70397 -18.70396
 Alpha  occ. eigenvalues --   -4.84989  -3.20947  -3.20947  -3.20929  -0.51632
 Alpha  occ. eigenvalues --   -0.46516  -0.46513  -0.46487  -0.01841   0.05702
 Alpha  occ. eigenvalues --    0.05734   0.05735   0.11788   0.12336   0.12385
 Alpha  occ. eigenvalues --    0.12633   0.12634   0.17020   0.17021
 Alpha virt. eigenvalues --    0.21361   0.48869   0.54134   0.54137   0.54282
 Alpha virt. eigenvalues --    0.74565   0.78135   0.78146   0.78368   1.08859
 Alpha virt. eigenvalues --    1.09373   1.22634   1.22635   1.22681   1.31139
 Alpha virt. eigenvalues --    1.33261   1.33948   1.43110   1.43579   1.43583
 Alpha virt. eigenvalues --    1.45494   1.45513   1.45681   1.56917   1.56928
 Alpha virt. eigenvalues --    1.57154   1.68793   1.68800   1.69095   1.86022
 Alpha virt. eigenvalues --    2.20100   2.20862   2.20864   2.23573   2.23600
 Alpha virt. eigenvalues --    2.24006   2.24007   2.24168   2.24481   2.24651
 Alpha virt. eigenvalues --    2.24654   2.52334   2.52336   2.53055   2.65678
 Alpha virt. eigenvalues --    2.66873   2.90737   3.16187   3.16268   3.16290
 Alpha virt. eigenvalues --    3.41934   4.02714   4.02725   4.02905   4.17989
          Condensed to atoms (all electrons):
              1          2          3          4          5
     1  Si  11.707113   0.398319   0.397817   0.398387   0.398323
     2  O    0.398319   8.335875  -0.018382  -0.018398  -0.022372
     3  O    0.397817  -0.018382   8.336373  -0.022366  -0.018383
     4  O    0.398387  -0.018398  -0.022366   8.335769  -0.018399
     5  O    0.398323  -0.022372  -0.018383  -0.018399   8.335780
 Mulliken atomic charges:
              1
     1  Si   0.700041
     2  O   -0.675041
     3  O   -0.675058
     4  O   -0.674993
     5  O   -0.674948
 Sum of Mulliken charges=  -2.00000
 Atomic charges with hydrogens summed into heavy atoms:
              1
     1  Si   0.700041
     2  O   -0.675041
     3  O   -0.675058
     4  O   -0.674993
     5  O   -0.674948
 Sum of Mulliken charges=  -2.00000
 Electronic spatial extent (au):  <R**2>=   419.6348
 Charge=    -2.0000 electrons
 Dipole moment (field-independent basis, Debye):
    X=     0.0007    Y=    -0.0001    Z=     0.0002  Tot=     0.0008
 Quadrupole moment (field-independent basis, Debye-Ang):
   XX=   -48.6317   YY=   -48.3647   ZZ=   -48.8160
   XY=    -0.0203   XZ=     0.3481   YZ=     0.0266
 Traceless Quadrupole moment (field-independent basis, Debye-Ang):
   XX=    -0.0276   YY=     0.2394   ZZ=    -0.2118
   XY=    -0.0203   XZ=     0.3481   YZ=     0.0266
 Octapole moment (field-independent basis, Debye-Ang**2):
  XXX=    14.4328  YYY=    -1.7008  ZZZ=   -10.8373  XYY=    -7.6695
  XXY=    -0.6661  XXZ=     1.1062  XZZ=    -6.7587  YZZ=     2.3664
  YYZ=     9.7328  XYZ=     0.1084
 Hexadecapole moment (field-independent basis, Debye-Ang**3):
 XXXX=  -202.5482 YYYY=  -200.6102 ZZZZ=  -199.9465 XXXY=     0.4326
 XXXZ=    -0.8899 YYYX=    -1.6326 YYYZ=    -0.8701 ZZZX=    -3.6220
 ZZZY=     0.5406 XXYY=   -61.3376 XXZZ=   -63.7578 YYZZ=   -64.6079
 XXYZ=     0.4348 YYXZ=     5.8699 ZZXY=     1.1210
 N-N= 2.190550112511D+02 E-N=-1.861541583951D+03  KE= 5.868252098495D+02
 PrsmSu:  requested number of processors reduced to:   7 ShMem   1 Linda.
 PrsmSu:  requested number of processors reduced to:   7 ShMem   1 Linda.
 PrsmSu:  requested number of processors reduced to:   3 ShMem   1 Linda.
 CalDSu:  requested number of processors reduced to:   6 ShMem   1 Linda.
 ***** Axes restored to original set *****
 -------------------------------------------------------------------
 Center     Atomic                   Forces (Hartrees/Bohr)
 Number     Number              X              Y              Z
 -------------------------------------------------------------------
    1         14          -0.000101890    0.000318103   -0.000030170
    2          8          -0.003947810    0.003953434    0.007232868
    3          8           0.005417102   -0.002246095   -0.007200254
    4          8           0.005340361   -0.004976639   -0.005489441
    5          8          -0.006707762    0.002951197    0.005486997
 -------------------------------------------------------------------
 Cartesian Forces:  Max     0.007232868 RMS     0.004740650

 GradGradGradGradGradGradGradGradGradGradGradGradGradGradGradGradGradGrad
 Berny optimization.
 Internal  Forces:  Max     0.017329722 RMS     0.009792319
 Search for a local minimum.
 Step number   1 out of a maximum of  20
 All quantities printed in internal units (Hartrees-Bohrs-Radians)
 Second derivative matrix not updated -- first step.
 The second derivative matrix:
                          R1        R2        R3        R4        A1
           R1           0.42625
           R2           0.00000   0.42522
           R3           0.00000   0.00000   0.42638
           R4           0.00000   0.00000   0.00000   0.42627
           A1           0.00000   0.00000   0.00000   0.00000   0.25000
           A2           0.00000   0.00000   0.00000   0.00000   0.00000
           A3           0.00000   0.00000   0.00000   0.00000   0.00000
           A4           0.00000   0.00000   0.00000   0.00000   0.00000
           A5           0.00000   0.00000   0.00000   0.00000   0.00000
           A6           0.00000   0.00000   0.00000   0.00000   0.00000
                          A2        A3        A4        A5        A6
           A2           0.25000
           A3           0.00000   0.25000
           A4           0.00000   0.00000   0.25000
           A5           0.00000   0.00000   0.00000   0.25000
           A6           0.00000   0.00000   0.00000   0.00000   0.25000
     Eigenvalues ---    0.25000   0.25000   0.25000   0.25000   0.25000
     Eigenvalues ---    0.42522   0.42625   0.42627   0.426381000.00000
 RFO step:  Lambda=-3.68365509D-03.
 Linear search not attempted -- first point.
 Iteration  1 RMS(Cart)=  0.06754642 RMS(Int)=  0.00120486
 Iteration  2 RMS(Cart)=  0.00117620 RMS(Int)=  0.00032943
 Iteration  3 RMS(Cart)=  0.00000018 RMS(Int)=  0.00032943
 Variable       Old X    -DE/DX   Delta X   Delta X   Delta X     New X
                                 (Linear)    (Quad)   (Total)
    R1        3.11835  -0.00378   0.00000  -0.00880  -0.00880   3.10956
    R2        3.11963  -0.00409   0.00000  -0.00954  -0.00954   3.11009
    R3        3.11819  -0.00375   0.00000  -0.00872  -0.00872   3.10947
    R4        3.11833  -0.00380   0.00000  -0.00885  -0.00885   3.10948
    A1        1.91043  -0.00864   0.00000  -0.03405  -0.03361   1.87682
    A2        1.91083  -0.00866   0.00000  -0.03414  -0.03370   1.87713
    A3        1.91080   0.01730   0.00000   0.06819   0.06860   1.97940
    A4        1.91047   0.01733   0.00000   0.06831   0.06873   1.97920
    A5        1.91043  -0.00867   0.00000  -0.03416  -0.03373   1.87670
    A6        1.91084  -0.00867   0.00000  -0.03416  -0.03373   1.87711
         Item               Value     Threshold  Converged?
 Maximum Force            0.017330     0.000450     NO 
 RMS     Force            0.009792     0.000300     NO 
 Maximum Displacement     0.097958     0.001800     NO 
 RMS     Displacement     0.067853     0.001200     NO 
 Predicted change in Energy=-1.868016D-03
 GradGradGradGradGradGradGradGradGradGradGradGradGradGradGradGradGradGrad

                          Input orientation:                          
 ---------------------------------------------------------------------
 Center     Atomic     Atomic              Coordinates (Angstroms)
 Number     Number      Type              X           Y           Z
 ---------------------------------------------------------------------
    1         14             0       -2.932616    0.194442    0.020149
    2          8             0       -1.289633    0.253795    0.089246
    3          8             0       -3.483991    1.744853   -0.008773
    4          8             0       -3.453643   -0.660167    1.326179
    5          8             0       -3.503537   -0.559743   -1.326260
 ---------------------------------------------------------------------
                    Distance matrix (angstroms):
                    1          2          3          4          5
     1  Si   0.000000
     2  O    1.645506   0.000000
     3  O    1.645790   2.654819   0.000000
     4  O    1.645460   2.654857   2.750844   0.000000
     5  O    1.645468   2.750795   2.654678   2.654808   0.000000
 Stoichiometry    O4Si(2-)
 Framework group  C1[X(O4Si)]
 Deg. of freedom     9
 Full point group                 C1
 Largest Abelian subgroup         C1      NOp   1
 Largest concise Abelian subgroup C1      NOp   1
                         Standard orientation:                         
 ---------------------------------------------------------------------
 Center     Atomic     Atomic              Coordinates (Angstroms)
 Number     Number      Type              X           Y           Z
 ---------------------------------------------------------------------
    1         14             0        0.000151   -0.000071   -0.000074
    2          8             0        0.700206    1.184200   -0.902913
    3          8             0       -1.183757    0.699923    0.903804
    4          8             0        1.183793   -0.700736    0.903029
    5          8             0       -0.700505   -1.183263   -0.903790
 ---------------------------------------------------------------------
 Rotational constants (GHZ):      4.4831501      4.4829723      4.1755253
 Standard basis: 6-31G(d,p) (6D, 7F)
 There are    79 symmetry adapted basis functions of A   symmetry.
 Integral buffers will be    131072 words long.
 Raffenetti 2 integral format.
 Two-electron integral symmetry is turned on.
    79 basis functions,   164 primitive gaussians,    79 cartesian basis functions
    24 alpha electrons       24 beta electrons
       nuclear repulsion energy       219.7193760893 Hartrees.
 NAtoms=    5 NActive=    5 NUniq=    5 SFac= 7.50D-01 NAtFMM=   80 NAOKFM=F Big=F
 One-electron integrals computed using PRISM.
 PrsmSu:  requested number of processors reduced to:   7 ShMem   1 Linda.
 NBasis=    79 RedAO= T  NBF=    79
 NBsUse=    79 1.00D-06 NBFU=    79
 Initial guess read from the read-write file:
 Initial guess orbital symmetries:
       Occupied  (A) (A) (A) (A) (A) (A) (A) (A) (A) (A) (A) (A)
                 (A) (A) (A) (A) (A) (A) (A) (A) (A) (A) (A) (A)
       Virtual   (A) (A) (A) (A) (A) (A) (A) (A) (A) (A) (A) (A)
                 (A) (A) (A) (A) (A) (A) (A) (A) (A) (A) (A) (A)
                 (A) (A) (A) (A) (A) (A) (A) (A) (A) (A) (A) (A)
                 (A) (A) (A) (A) (A) (A) (A) (A) (A) (A) (A) (A)
                 (A) (A) (A) (A) (A) (A) (A)
 Harris functional with IExCor=  402 diagonalized for initial guess.
 ExpMin= 7.78D-02 ExpMax= 1.61D+04 ExpMxC= 2.43D+03 IAcc=2 IRadAn=         4 AccDes= 0.00D+00
 HarFok:  IExCor= 402 AccDes= 0.00D+00 IRadAn=         4 IDoV=1
 ScaDFX=  1.000000  1.000000  1.000000  1.000000
 CalDSu:  requested number of processors reduced to:   5 ShMem   1 Linda.
 Requested convergence on RMS density matrix=1.00D-08 within 128 cycles.
 Requested convergence on MAX density matrix=1.00D-06.
 Requested convergence on             energy=1.00D-06.
 No special actions if energy rises.
 Integral accuracy reduced to 1.0D-05 until final iterations.
 PrsmSu:  requested number of processors reduced to:   7 ShMem   1 Linda.
 CalDSu:  requested number of processors reduced to:   6 ShMem   1 Linda.
 PrsmSu:  requested number of processors reduced to:   7 ShMem   1 Linda.
 CalDSu:  requested number of processors reduced to:   6 ShMem   1 Linda.
 PrsmSu:  requested number of processors reduced to:   7 ShMem   1 Linda.
 CalDSu:  requested number of processors reduced to:   6 ShMem   1 Linda.
 PrsmSu:  requested number of processors reduced to:   7 ShMem   1 Linda.
 CalDSu:  requested number of processors reduced to:   6 ShMem   1 Linda.
 PrsmSu:  requested number of processors reduced to:   7 ShMem   1 Linda.
 CalDSu:  requested number of processors reduced to:   6 ShMem   1 Linda.
 PrsmSu:  requested number of processors reduced to:   7 ShMem   1 Linda.
 CalDSu:  requested number of processors reduced to:   6 ShMem   1 Linda.
 EnCoef did     4 forward-backward iterations
 PrsmSu:  requested number of processors reduced to:   7 ShMem   1 Linda.
 CalDSu:  requested number of processors reduced to:   6 ShMem   1 Linda.
 PrsmSu:  requested number of processors reduced to:   7 ShMem   1 Linda.
 CalDSu:  requested number of processors reduced to:   6 ShMem   1 Linda.
 PrsmSu:  requested number of processors reduced to:   7 ShMem   1 Linda.
 CalDSu:  requested number of processors reduced to:   6 ShMem   1 Linda.
 EnCoef did    12 forward-backward iterations
 PrsmSu:  requested number of processors reduced to:   7 ShMem   1 Linda.
 CalDSu:  requested number of processors reduced to:   6 ShMem   1 Linda.
 PrsmSu:  requested number of processors reduced to:   7 ShMem   1 Linda.
 CalDSu:  requested number of processors reduced to:   6 ShMem   1 Linda.
 Initial convergence to 1.0D-05 achieved.  Increase integral accuracy.
 PrsmSu:  requested number of processors reduced to:   7 ShMem   1 Linda.
 CalDSu:  requested number of processors reduced to:   6 ShMem   1 Linda.
 PrsmSu:  requested number of processors reduced to:   7 ShMem   1 Linda.
 CalDSu:  requested number of processors reduced to:   6 ShMem   1 Linda.
 PrsmSu:  requested number of processors reduced to:   7 ShMem   1 Linda.
 CalDSu:  requested number of processors reduced to:   6 ShMem   1 Linda.
 PrsmSu:  requested number of processors reduced to:   7 ShMem   1 Linda.
 CalDSu:  requested number of processors reduced to:   6 ShMem   1 Linda.
 PrsmSu:  requested number of processors reduced to:   7 ShMem   1 Linda.
 CalDSu:  requested number of processors reduced to:   6 ShMem   1 Linda.
 PrsmSu:  requested number of processors reduced to:   7 ShMem   1 Linda.
 CalDSu:  requested number of processors reduced to:   6 ShMem   1 Linda.
 PrsmSu:  requested number of processors reduced to:   7 ShMem   1 Linda.
 CalDSu:  requested number of processors reduced to:   6 ShMem   1 Linda.
 PrsmSu:  requested number of processors reduced to:   7 ShMem   1 Linda.
 CalDSu:  requested number of processors reduced to:   6 ShMem   1 Linda.
 PrsmSu:  requested number of processors reduced to:   7 ShMem   1 Linda.
 CalDSu:  requested number of processors reduced to:   6 ShMem   1 Linda.
 PrsmSu:  requested number of processors reduced to:   7 ShMem   1 Linda.
 CalDSu:  requested number of processors reduced to:   6 ShMem   1 Linda.
 PrsmSu:  requested number of processors reduced to:   7 ShMem   1 Linda.
 CalDSu:  requested number of processors reduced to:   6 ShMem   1 Linda.
 PrsmSu:  requested number of processors reduced to:   7 ShMem   1 Linda.
 CalDSu:  requested number of processors reduced to:   6 ShMem   1 Linda.
 SCF Done:  E(RB+HF-LYP) =  -590.245828652     A.U. after   23 cycles
             Convg  =    0.2347D-08             -V/T =  2.0058
             S**2   =   0.0000
 PrsmSu:  requested number of processors reduced to:   7 ShMem   1 Linda.
 PrsmSu:  requested number of processors reduced to:   3 ShMem   1 Linda.
 CalDSu:  requested number of processors reduced to:   6 ShMem   1 Linda.
 ***** Axes restored to original set *****
 -------------------------------------------------------------------
 Center     Atomic                   Forces (Hartrees/Bohr)
 Number     Number              X              Y              Z
 -------------------------------------------------------------------
    1         14          -0.000036941    0.000153937   -0.000000890
    2          8          -0.001563857    0.001916906    0.003471659
    3          8           0.002471682   -0.000751175   -0.003447156
    4          8           0.002461422   -0.002556856   -0.002357325
    5          8          -0.003332306    0.001237188    0.002333712
 -------------------------------------------------------------------
 Cartesian Forces:  Max     0.003471659 RMS     0.002205874

 GradGradGradGradGradGradGradGradGradGradGradGradGradGradGradGradGradGrad
 Berny optimization.
 Internal  Forces:  Max     0.008608285 RMS     0.004731381
 Search for a local minimum.
 Step number   2 out of a maximum of  20
 All quantities printed in internal units (Hartrees-Bohrs-Radians)
 Update second derivatives using D2CorX and points  1  2
 Trust test= 1.45D+00 RLast= 1.20D-01 DXMaxT set to 3.59D-01
 The second derivative matrix:
                          R1        R2        R3        R4        A1
           R1           0.42550
           R2          -0.00083   0.42430
           R3          -0.00072  -0.00080   0.42568
           R4          -0.00070  -0.00079  -0.00068   0.42560
           A1          -0.00290  -0.00318  -0.00285  -0.00284   0.24121
           A2          -0.00290  -0.00318  -0.00285  -0.00284  -0.00879
           A3           0.00652   0.00714   0.00641   0.00641   0.01904
           A4           0.00654   0.00716   0.00643   0.00642   0.01909
           A5          -0.00288  -0.00316  -0.00282  -0.00282  -0.00876
           A6          -0.00289  -0.00317  -0.00284  -0.00283  -0.00878
                          A2        A3        A4        A5        A6
           A2           0.24120
           A3           0.01906   0.20899
           A4           0.01910  -0.04110   0.20881
           A5          -0.00876   0.01899   0.01903   0.24128
           A6          -0.00879   0.01904   0.01908  -0.00875   0.24122
     Eigenvalues ---    0.13089   0.25000   0.25000   0.25000   0.25000
     Eigenvalues ---    0.42439   0.42578   0.42626   0.426341000.00000
 RFO step:  Lambda=-1.71890834D-05.
 Quartic linear search produced a step of  1.20590.
 Iteration  1 RMS(Cart)=  0.08325627 RMS(Int)=  0.00201974
 Iteration  2 RMS(Cart)=  0.00182291 RMS(Int)=  0.00095719
 Iteration  3 RMS(Cart)=  0.00000066 RMS(Int)=  0.00095719
 Variable       Old X    -DE/DX   Delta X   Delta X   Delta X     New X
                                 (Linear)    (Quad)   (Total)
    R1        3.10956  -0.00135  -0.01061   0.00298  -0.00763   3.10193
    R2        3.11009  -0.00148  -0.01151   0.00314  -0.00837   3.10172
    R3        3.10947  -0.00132  -0.01052   0.00303  -0.00749   3.10197
    R4        3.10948  -0.00132  -0.01067   0.00317  -0.00749   3.10199
    A1        1.87682  -0.00414  -0.04054  -0.00068  -0.03995   1.83687
    A2        1.87713  -0.00414  -0.04064  -0.00062  -0.03999   1.83714
    A3        1.97940   0.00859   0.08273   0.00119   0.08507   2.06447
    A4        1.97920   0.00861   0.08288   0.00122   0.08525   2.06445
    A5        1.87670  -0.00413  -0.04067  -0.00046  -0.03986   1.83685
    A6        1.87711  -0.00414  -0.04067  -0.00055  -0.03995   1.83716
         Item               Value     Threshold  Converged?
 Maximum Force            0.008608     0.000450     NO 
 RMS     Force            0.004731     0.000300     NO 
 Maximum Displacement     0.120211     0.001800     NO 
 RMS     Displacement     0.083779     0.001200     NO 
 Predicted change in Energy=-7.828019D-04
 GradGradGradGradGradGradGradGradGradGradGradGradGradGradGradGradGradGrad

                          Input orientation:                          
 ---------------------------------------------------------------------
 Center     Atomic     Atomic              Coordinates (Angstroms)
 Number     Number      Type              X           Y           Z
 ---------------------------------------------------------------------
    1         14             0       -2.932683    0.194567    0.020156
    2          8             0       -1.298998    0.287485    0.150023
    3          8             0       -3.447766    1.750486   -0.068572
    4          8             0       -3.416823   -0.713298    1.299176
    5          8             0       -3.567150   -0.546059   -1.300243
 ---------------------------------------------------------------------
                    Distance matrix (angstroms):
                    1          2          3          4          5
     1  Si   0.000000
     2  O    1.641470   0.000000
     3  O    1.641362   2.608709   0.000000
     4  O    1.641494   2.609081   2.818142   0.000000
     5  O    1.641502   2.818258   2.608713   2.609127   0.000000
 Stoichiometry    O4Si(2-)
 Framework group  C1[X(O4Si)]
 Deg. of freedom     9
 Full point group                 C1
 Largest Abelian subgroup         C1      NOp   1
 Largest concise Abelian subgroup C1      NOp   1
                         Standard orientation:                         
 ---------------------------------------------------------------------
 Center     Atomic     Atomic              Coordinates (Angstroms)
 Number     Number      Type              X           Y           Z
 ---------------------------------------------------------------------
    1         14             0        0.000016    0.000071   -0.000006
    2          8             0        1.390567   -0.227702    0.841964
    3          8             0       -0.226924   -1.390066   -0.842670
    4          8             0        0.227195    1.391246   -0.841151
    5          8             0       -1.390866    0.226397    0.841867
 ---------------------------------------------------------------------
 Rotational constants (GHZ):      4.6422551      4.6420194      3.9782459
 Standard basis: 6-31G(d,p) (6D, 7F)
 There are    79 symmetry adapted basis functions of A   symmetry.
 Integral buffers will be    131072 words long.
 Raffenetti 2 integral format.
 Two-electron integral symmetry is turned on.
    79 basis functions,   164 primitive gaussians,    79 cartesian basis functions
    24 alpha electrons       24 beta electrons
       nuclear repulsion energy       220.3878644507 Hartrees.
 NAtoms=    5 NActive=    5 NUniq=    5 SFac= 7.50D-01 NAtFMM=   80 NAOKFM=F Big=F
 One-electron integrals computed using PRISM.
 PrsmSu:  requested number of processors reduced to:   7 ShMem   1 Linda.
 NBasis=    79 RedAO= T  NBF=    79
 NBsUse=    79 1.00D-06 NBFU=    79
 Initial guess read from the read-write file:
 Initial guess orbital symmetries:
       Occupied  (A) (A) (A) (A) (A) (A) (A) (A) (A) (A) (A) (A)
                 (A) (A) (A) (A) (A) (A) (A) (A) (A) (A) (A) (A)
       Virtual   (A) (A) (A) (A) (A) (A) (A) (A) (A) (A) (A) (A)
                 (A) (A) (A) (A) (A) (A) (A) (A) (A) (A) (A) (A)
                 (A) (A) (A) (A) (A) (A) (A) (A) (A) (A) (A) (A)
                 (A) (A) (A) (A) (A) (A) (A) (A) (A) (A) (A) (A)
                 (A) (A) (A) (A) (A) (A) (A)
 Harris functional with IExCor=  402 diagonalized for initial guess.
 ExpMin= 7.78D-02 ExpMax= 1.61D+04 ExpMxC= 2.43D+03 IAcc=2 IRadAn=         4 AccDes= 0.00D+00
 HarFok:  IExCor= 402 AccDes= 0.00D+00 IRadAn=         4 IDoV=1
 ScaDFX=  1.000000  1.000000  1.000000  1.000000
 CalDSu:  requested number of processors reduced to:   5 ShMem   1 Linda.
 Requested convergence on RMS density matrix=1.00D-08 within 128 cycles.
 Requested convergence on MAX density matrix=1.00D-06.
 Requested convergence on             energy=1.00D-06.
 No special actions if energy rises.
 Integral accuracy reduced to 1.0D-05 until final iterations.
 PrsmSu:  requested number of processors reduced to:   7 ShMem   1 Linda.
 CalDSu:  requested number of processors reduced to:   6 ShMem   1 Linda.
 PrsmSu:  requested number of processors reduced to:   7 ShMem   1 Linda.
 CalDSu:  requested number of processors reduced to:   6 ShMem   1 Linda.
 PrsmSu:  requested number of processors reduced to:   7 ShMem   1 Linda.
 CalDSu:  requested number of processors reduced to:   6 ShMem   1 Linda.
 PrsmSu:  requested number of processors reduced to:   7 ShMem   1 Linda.
 CalDSu:  requested number of processors reduced to:   6 ShMem   1 Linda.
 PrsmSu:  requested number of processors reduced to:   7 ShMem   1 Linda.
 CalDSu:  requested number of processors reduced to:   6 ShMem   1 Linda.
 PrsmSu:  requested number of processors reduced to:   7 ShMem   1 Linda.
 CalDSu:  requested number of processors reduced to:   6 ShMem   1 Linda.
 PrsmSu:  requested number of processors reduced to:   7 ShMem   1 Linda.
 CalDSu:  requested number of processors reduced to:   6 ShMem   1 Linda.
 EnCoef did     4 forward-backward iterations
 PrsmSu:  requested number of processors reduced to:   7 ShMem   1 Linda.
 CalDSu:  requested number of processors reduced to:   6 ShMem   1 Linda.
 PrsmSu:  requested number of processors reduced to:   7 ShMem   1 Linda.
 CalDSu:  requested number of processors reduced to:   6 ShMem   1 Linda.
 EnCoef did     9 forward-backward iterations
 PrsmSu:  requested number of processors reduced to:   7 ShMem   1 Linda.
 CalDSu:  requested number of processors reduced to:   6 ShMem   1 Linda.
 Initial convergence to 1.0D-05 achieved.  Increase integral accuracy.
 PrsmSu:  requested number of processors reduced to:   7 ShMem   1 Linda.
 CalDSu:  requested number of processors reduced to:   6 ShMem   1 Linda.
 PrsmSu:  requested number of processors reduced to:   7 ShMem   1 Linda.
 CalDSu:  requested number of processors reduced to:   6 ShMem   1 Linda.
 PrsmSu:  requested number of processors reduced to:   7 ShMem   1 Linda.
 CalDSu:  requested number of processors reduced to:   6 ShMem   1 Linda.
 PrsmSu:  requested number of processors reduced to:   7 ShMem   1 Linda.
 CalDSu:  requested number of processors reduced to:   6 ShMem   1 Linda.
 PrsmSu:  requested number of processors reduced to:   7 ShMem   1 Linda.
 CalDSu:  requested number of processors reduced to:   6 ShMem   1 Linda.
 PrsmSu:  requested number of processors reduced to:   7 ShMem   1 Linda.
 CalDSu:  requested number of processors reduced to:   6 ShMem   1 Linda.
 PrsmSu:  requested number of processors reduced to:   7 ShMem   1 Linda.
 CalDSu:  requested number of processors reduced to:   6 ShMem   1 Linda.
 PrsmSu:  requested number of processors reduced to:   7 ShMem   1 Linda.
 CalDSu:  requested number of processors reduced to:   6 ShMem   1 Linda.
 PrsmSu:  requested number of processors reduced to:   7 ShMem   1 Linda.
 CalDSu:  requested number of processors reduced to:   6 ShMem   1 Linda.
 PrsmSu:  requested number of processors reduced to:   7 ShMem   1 Linda.
 CalDSu:  requested number of processors reduced to:   6 ShMem   1 Linda.
 PrsmSu:  requested number of processors reduced to:   7 ShMem   1 Linda.
 CalDSu:  requested number of processors reduced to:   6 ShMem   1 Linda.
 PrsmSu:  requested number of processors reduced to:   7 ShMem   1 Linda.
 CalDSu:  requested number of processors reduced to:   6 ShMem   1 Linda.
 SCF Done:  E(RB+HF-LYP) =  -590.246703556     A.U. after   22 cycles
             Convg  =    0.3815D-08             -V/T =  2.0057
             S**2   =   0.0000
 PrsmSu:  requested number of processors reduced to:   7 ShMem   1 Linda.
 PrsmSu:  requested number of processors reduced to:   3 ShMem   1 Linda.
 CalDSu:  requested number of processors reduced to:   6 ShMem   1 Linda.
 ***** Axes restored to original set *****
 -------------------------------------------------------------------
 Center     Atomic                   Forces (Hartrees/Bohr)
 Number     Number              X              Y              Z
 -------------------------------------------------------------------
    1         14           0.000005306   -0.000067243    0.000003906
    2          8           0.001139625   -0.000257218   -0.000453370
    3          8          -0.000673104    0.001024902    0.000480378
    4          8          -0.000639147   -0.000106539    0.001041448
    5          8           0.000167321   -0.000593903   -0.001072362
 -------------------------------------------------------------------
 Cartesian Forces:  Max     0.001139625 RMS     0.000650355

 GradGradGradGradGradGradGradGradGradGradGradGradGradGradGradGradGradGrad
 Berny optimization.
 Internal  Forces:  Max     0.001378384 RMS     0.001005004
 Search for a local minimum.
 Step number   3 out of a maximum of  20
 All quantities printed in internal units (Hartrees-Bohrs-Radians)
 Update second derivatives using D2CorX and points  1  2  3
 Trust test= 1.12D+00 RLast= 1.45D-01 DXMaxT set to 4.36D-01
 The second derivative matrix:
                          R1        R2        R3        R4        A1
           R1           0.42708
           R2           0.00086   0.42611
           R3           0.00082   0.00085   0.42719
           R4           0.00085   0.00088   0.00084   0.42713
           A1          -0.00143  -0.00162  -0.00142  -0.00140   0.24030
           A2          -0.00146  -0.00166  -0.00145  -0.00144  -0.00977
           A3           0.00361   0.00405   0.00358   0.00356   0.02112
           A4           0.00363   0.00408   0.00361   0.00359   0.02120
           A5          -0.00141  -0.00160  -0.00140  -0.00138  -0.00968
           A6          -0.00146  -0.00165  -0.00145  -0.00143  -0.00977
                          A2        A3        A4        A5        A6
           A2           0.24016
           A3           0.02128   0.20428
           A4           0.02135  -0.04588   0.20396
           A5          -0.00975   0.02109   0.02116   0.24035
           A6          -0.00984   0.02127   0.02135  -0.00974   0.24016
     Eigenvalues ---    0.11857   0.25000   0.25000   0.25000   0.25000
     Eigenvalues ---    0.42546   0.42626   0.42634   0.429931000.00000
 RFO step:  Lambda=-4.99341995D-06.
 Quartic linear search produced a step of -0.15265.
 Iteration  1 RMS(Cart)=  0.01240551 RMS(Int)=  0.00008285
 Iteration  2 RMS(Cart)=  0.00003977 RMS(Int)=  0.00007432
 Iteration  3 RMS(Cart)=  0.00000000 RMS(Int)=  0.00007432
 Variable       Old X    -DE/DX   Delta X   Delta X   Delta X     New X
                                 (Linear)    (Quad)   (Total)
    R1        3.10193   0.00108   0.00116   0.00166   0.00283   3.10476
    R2        3.10172   0.00116   0.00128   0.00177   0.00304   3.10477
    R3        3.10197   0.00106   0.00114   0.00162   0.00277   3.10474
    R4        3.10199   0.00107   0.00114   0.00164   0.00278   3.10477
    A1        1.83687   0.00064   0.00610  -0.00020   0.00579   1.84266
    A2        1.83714   0.00061   0.00610  -0.00031   0.00569   1.84283
    A3        2.06447  -0.00138  -0.01299   0.00054  -0.01253   2.05193
    A4        2.06445  -0.00136  -0.01301   0.00060  -0.01250   2.05194
    A5        1.83685   0.00064   0.00608  -0.00020   0.00578   1.84263
    A6        1.83716   0.00061   0.00610  -0.00032   0.00568   1.84283
         Item               Value     Threshold  Converged?
 Maximum Force            0.001378     0.000450     NO 
 RMS     Force            0.001005     0.000300     NO 
 Maximum Displacement     0.016890     0.001800     NO 
 RMS     Displacement     0.012419     0.001200     NO 
 Predicted change in Energy=-2.913424D-05
 GradGradGradGradGradGradGradGradGradGradGradGradGradGradGradGradGradGrad

                          Input orientation:                          
 ---------------------------------------------------------------------
 Center     Atomic     Atomic              Coordinates (Angstroms)
 Number     Number      Type              X           Y           Z
 ---------------------------------------------------------------------
    1         14             0       -2.932681    0.194578    0.020148
    2          8             0       -1.296543    0.282547    0.141196
    3          8             0       -3.453462    1.750773   -0.059844
    4          8             0       -3.422523   -0.706113    1.303939
    5          8             0       -3.558212   -0.548604   -1.304899
 ---------------------------------------------------------------------
                    Distance matrix (angstroms):
                    1          2          3          4          5
     1  Si   0.000000
     2  O    1.642966   0.000000
     3  O    1.642972   2.616946   0.000000
     4  O    1.642957   2.617099   2.810188   0.000000
     5  O    1.642973   2.810187   2.616920   2.617109   0.000000
 Stoichiometry    O4Si(2-)
 Framework group  C1[X(O4Si)]
 Deg. of freedom     9
 Full point group                 C1
 Largest Abelian subgroup         C1      NOp   1
 Largest concise Abelian subgroup C1      NOp   1
                         Standard orientation:                         
 ---------------------------------------------------------------------
 Center     Atomic     Atomic              Coordinates (Angstroms)
 Number     Number      Type              X           Y           Z
 ---------------------------------------------------------------------
    1         14             0       -0.000048   -0.000039   -0.000003
    2          8             0       -0.983222    1.003791    0.851484
    3          8             0        1.003382    0.983232   -0.851862
    4          8             0       -1.003749   -0.983638   -0.851135
    5          8             0        0.983672   -1.003316    0.851519
 ---------------------------------------------------------------------
 Rotational constants (GHZ):      4.6134372      4.6133755      4.0009650
 Standard basis: 6-31G(d,p) (6D, 7F)
 There are    79 symmetry adapted basis functions of A   symmetry.
 Integral buffers will be    131072 words long.
 Raffenetti 2 integral format.
 Two-electron integral symmetry is turned on.
    79 basis functions,   164 primitive gaussians,    79 cartesian basis functions
    24 alpha electrons       24 beta electrons
       nuclear repulsion energy       220.1627156609 Hartrees.
 NAtoms=    5 NActive=    5 NUniq=    5 SFac= 7.50D-01 NAtFMM=   80 NAOKFM=F Big=F
 One-electron integrals computed using PRISM.
 PrsmSu:  requested number of processors reduced to:   7 ShMem   1 Linda.
 NBasis=    79 RedAO= T  NBF=    79
 NBsUse=    79 1.00D-06 NBFU=    79
 Initial guess read from the read-write file:
 Initial guess orbital symmetries:
       Occupied  (A) (A) (A) (A) (A) (A) (A) (A) (A) (A) (A) (A)
                 (A) (A) (A) (A) (A) (A) (A) (A) (A) (A) (A) (A)
       Virtual   (A) (A) (A) (A) (A) (A) (A) (A) (A) (A) (A) (A)
                 (A) (A) (A) (A) (A) (A) (A) (A) (A) (A) (A) (A)
                 (A) (A) (A) (A) (A) (A) (A) (A) (A) (A) (A) (A)
                 (A) (A) (A) (A) (A) (A) (A) (A) (A) (A) (A) (A)
                 (A) (A) (A) (A) (A) (A) (A)
 Requested convergence on RMS density matrix=1.00D-08 within 128 cycles.
 Requested convergence on MAX density matrix=1.00D-06.
 Requested convergence on             energy=1.00D-06.
 No special actions if energy rises.
 PrsmSu:  requested number of processors reduced to:   7 ShMem   1 Linda.
 CalDSu:  requested number of processors reduced to:   6 ShMem   1 Linda.
 PrsmSu:  requested number of processors reduced to:   7 ShMem   1 Linda.
 CalDSu:  requested number of processors reduced to:   6 ShMem   1 Linda.
 PrsmSu:  requested number of processors reduced to:   7 ShMem   1 Linda.
 CalDSu:  requested number of processors reduced to:   6 ShMem   1 Linda.
 PrsmSu:  requested number of processors reduced to:   7 ShMem   1 Linda.
 CalDSu:  requested number of processors reduced to:   6 ShMem   1 Linda.
 PrsmSu:  requested number of processors reduced to:   7 ShMem   1 Linda.
 CalDSu:  requested number of processors reduced to:   6 ShMem   1 Linda.
 PrsmSu:  requested number of processors reduced to:   7 ShMem   1 Linda.
 CalDSu:  requested number of processors reduced to:   6 ShMem   1 Linda.
 PrsmSu:  requested number of processors reduced to:   7 ShMem   1 Linda.
 CalDSu:  requested number of processors reduced to:   6 ShMem   1 Linda.
 PrsmSu:  requested number of processors reduced to:   7 ShMem   1 Linda.
 CalDSu:  requested number of processors reduced to:   6 ShMem   1 Linda.
 PrsmSu:  requested number of processors reduced to:   7 ShMem   1 Linda.
 CalDSu:  requested number of processors reduced to:   6 ShMem   1 Linda.
 PrsmSu:  requested number of processors reduced to:   7 ShMem   1 Linda.
 CalDSu:  requested number of processors reduced to:   6 ShMem   1 Linda.
 PrsmSu:  requested number of processors reduced to:   7 ShMem   1 Linda.
 CalDSu:  requested number of processors reduced to:   6 ShMem   1 Linda.
 PrsmSu:  requested number of processors reduced to:   7 ShMem   1 Linda.
 CalDSu:  requested number of processors reduced to:   6 ShMem   1 Linda.
 PrsmSu:  requested number of processors reduced to:   7 ShMem   1 Linda.
 CalDSu:  requested number of processors reduced to:   6 ShMem   1 Linda.
 PrsmSu:  requested number of processors reduced to:   7 ShMem   1 Linda.
 CalDSu:  requested number of processors reduced to:   6 ShMem   1 Linda.
 PrsmSu:  requested number of processors reduced to:   7 ShMem   1 Linda.
 CalDSu:  requested number of processors reduced to:   6 ShMem   1 Linda.
 PrsmSu:  requested number of processors reduced to:   7 ShMem   1 Linda.
 CalDSu:  requested number of processors reduced to:   6 ShMem   1 Linda.
 PrsmSu:  requested number of processors reduced to:   7 ShMem   1 Linda.
 CalDSu:  requested number of processors reduced to:   6 ShMem   1 Linda.
 PrsmSu:  requested number of processors reduced to:   7 ShMem   1 Linda.
 CalDSu:  requested number of processors reduced to:   6 ShMem   1 Linda.
 SCF Done:  E(RB+HF-LYP) =  -590.246775241     A.U. after   18 cycles
             Convg  =    0.6502D-09             -V/T =  2.0057
             S**2   =   0.0000
 PrsmSu:  requested number of processors reduced to:   7 ShMem   1 Linda.
 PrsmSu:  requested number of processors reduced to:   3 ShMem   1 Linda.
 CalDSu:  requested number of processors reduced to:   6 ShMem   1 Linda.
 ***** Axes restored to original set *****
 -------------------------------------------------------------------
 Center     Atomic                   Forces (Hartrees/Bohr)
 Number     Number              X              Y              Z
 -------------------------------------------------------------------
    1         14          -0.000000341    0.000001901   -0.000005770
    2          8           0.000032501   -0.000002466    0.000006819
    3          8          -0.000009847    0.000035711    0.000000231
    4          8          -0.000009354   -0.000019887    0.000021370
    5          8          -0.000012959   -0.000015259   -0.000022650
 -------------------------------------------------------------------
 Cartesian Forces:  Max     0.000035711 RMS     0.000017072

 GradGradGradGradGradGradGradGradGradGradGradGradGradGradGradGradGradGrad
 Berny optimization.
 Internal  Forces:  Max     0.000036935 RMS     0.000021193
 Search for a local minimum.
 Step number   4 out of a maximum of  20
 All quantities printed in internal units (Hartrees-Bohrs-Radians)
 Update second derivatives using D2CorX and points  1  2  3  4
 Trust test= 2.46D+00 RLast= 2.19D-02 DXMaxT set to 4.36D-01
 The second derivative matrix:
                          R1        R2        R3        R4        A1
           R1           0.42635
           R2           0.00004   0.42520
           R3           0.00013   0.00008   0.42654
           R4           0.00016   0.00011   0.00020   0.42649
           A1          -0.00196  -0.00221  -0.00192  -0.00191   0.23980
           A2          -0.00176  -0.00199  -0.00172  -0.00170  -0.01014
           A3           0.00446   0.00501   0.00437   0.00435   0.02209
           A4           0.00452   0.00507   0.00443   0.00441   0.02218
           A5          -0.00198  -0.00223  -0.00194  -0.00192  -0.01019
           A6          -0.00174  -0.00198  -0.00171  -0.00169  -0.01013
                          A2        A3        A4        A5        A6
           A2           0.23991
           A3           0.02197   0.20242
           A4           0.02206  -0.04778   0.20203
           A5          -0.01013   0.02210   0.02219   0.23981
           A6          -0.01008   0.02195   0.02204  -0.01012   0.23993
     Eigenvalues ---    0.11302   0.24999   0.25000   0.25000   0.25000
     Eigenvalues ---    0.42531   0.42625   0.42634   0.427411000.00000
 RFO step:  Lambda=-1.13622265D-08.
 Quartic linear search produced a step of  0.00084.
 Iteration  1 RMS(Cart)=  0.00008343 RMS(Int)=  0.00000001
 Iteration  2 RMS(Cart)=  0.00000000 RMS(Int)=  0.00000001
 Variable       Old X    -DE/DX   Delta X   Delta X   Delta X     New X
                                 (Linear)    (Quad)   (Total)
    R1        3.10476   0.00003   0.00000   0.00007   0.00007   3.10483
    R2        3.10477   0.00004   0.00000   0.00008   0.00008   3.10485
    R3        3.10474   0.00003   0.00000   0.00006   0.00007   3.10481
    R4        3.10477   0.00003   0.00000   0.00006   0.00007   3.10483
    A1        1.84266   0.00000   0.00000  -0.00001  -0.00001   1.84266
    A2        1.84283  -0.00001   0.00000  -0.00006  -0.00006   1.84277
    A3        2.05193   0.00000  -0.00001   0.00008   0.00007   2.05200
    A4        2.05194   0.00000  -0.00001   0.00007   0.00006   2.05201
    A5        1.84263   0.00001   0.00000   0.00000   0.00000   1.84263
    A6        1.84283  -0.00001   0.00000  -0.00006  -0.00006   1.84277
         Item               Value     Threshold  Converged?
 Maximum Force            0.000037     0.000450     YES
 RMS     Force            0.000021     0.000300     YES
 Maximum Displacement     0.000120     0.001800     YES
 RMS     Displacement     0.000083     0.001200     YES
 Predicted change in Energy=-5.058358D-09
 Optimization completed.
    -- Stationary point found.
                           ----------------------------
                           !   Optimized Parameters   !
                           ! (Angstroms and Degrees)  !
 --------------------------                            --------------------------
 ! Name  Definition              Value          Derivative Info.                !
 --------------------------------------------------------------------------------
 ! R1    R(1,2)                  1.643          -DE/DX =    0.0                 !
 ! R2    R(1,3)                  1.643          -DE/DX =    0.0                 !
 ! R3    R(1,4)                  1.643          -DE/DX =    0.0                 !
 ! R4    R(1,5)                  1.643          -DE/DX =    0.0                 !
 ! A1    A(2,1,3)              105.5768         -DE/DX =    0.0                 !
 ! A2    A(2,1,4)              105.5863         -DE/DX =    0.0                 !
 ! A3    A(2,1,5)              117.5672         -DE/DX =    0.0                 !
 ! A4    A(3,1,4)              117.5678         -DE/DX =    0.0                 !
 ! A5    A(3,1,5)              105.575          -DE/DX =    0.0                 !
 ! A6    A(4,1,5)              105.5866         -DE/DX =    0.0                 !
 --------------------------------------------------------------------------------
 GradGradGradGradGradGradGradGradGradGradGradGradGradGradGradGradGradGrad

                          Input orientation:                          
 ---------------------------------------------------------------------
 Center     Atomic     Atomic              Coordinates (Angstroms)
 Number     Number      Type              X           Y           Z
 ---------------------------------------------------------------------
    1         14             0       -2.932681    0.194578    0.020148
    2          8             0       -1.296543    0.282547    0.141196
    3          8             0       -3.453462    1.750773   -0.059844
    4          8             0       -3.422523   -0.706113    1.303939
    5          8             0       -3.558212   -0.548604   -1.304899
 ---------------------------------------------------------------------
                    Distance matrix (angstroms):
                    1          2          3          4          5
     1  Si   0.000000
     2  O    1.642966   0.000000
     3  O    1.642972   2.616946   0.000000
     4  O    1.642957   2.617099   2.810188   0.000000
     5  O    1.642973   2.810187   2.616920   2.617109   0.000000
 Stoichiometry    O4Si(2-)
 Framework group  C1[X(O4Si)]
 Deg. of freedom     9
 Full point group                 C1
 Largest Abelian subgroup         C1      NOp   1
 Largest concise Abelian subgroup C1      NOp   1
                         Standard orientation:                         
 ---------------------------------------------------------------------
 Center     Atomic     Atomic              Coordinates (Angstroms)
 Number     Number      Type              X           Y           Z
 ---------------------------------------------------------------------
    1         14             0       -0.000048   -0.000039   -0.000003
    2          8             0       -0.983222    1.003791    0.851484
    3          8             0        1.003382    0.983232   -0.851862
    4          8             0       -1.003749   -0.983638   -0.851135
    5          8             0        0.983672   -1.003316    0.851519
 ---------------------------------------------------------------------
 Rotational constants (GHZ):      4.6134372      4.6133755      4.0009650

 **********************************************************************

            Population analysis using the SCF density.

 **********************************************************************

 Orbital symmetries:
       Occupied  (A) (A) (A) (A) (A) (A) (A) (A) (A) (A) (A) (A)
                 (A) (A) (A) (A) (A) (A) (A) (A) (A) (A) (A) (A)
       Virtual   (A) (A) (A) (A) (A) (A) (A) (A) (A) (A) (A) (A)
                 (A) (A) (A) (A) (A) (A) (A) (A) (A) (A) (A) (A)
                 (A) (A) (A) (A) (A) (A) (A) (A) (A) (A) (A) (A)
                 (A) (A) (A) (A) (A) (A) (A) (A) (A) (A) (A) (A)
                 (A) (A) (A) (A) (A) (A) (A)
 The electronic state is 1-A.
 Alpha  occ. eigenvalues --  -65.70886 -18.70283 -18.70282 -18.70281 -18.70280
 Alpha  occ. eigenvalues --   -4.84696  -3.20716  -3.20608  -3.20608  -0.51788
 Alpha  occ. eigenvalues --   -0.46767  -0.46767  -0.45893  -0.01758   0.05596
 Alpha  occ. eigenvalues --    0.05596   0.06008   0.11602   0.12404   0.12476
 Alpha  occ. eigenvalues --    0.12552   0.12552   0.17158   0.17158
 Alpha virt. eigenvalues --    0.21939   0.48776   0.53349   0.54615   0.54615
 Alpha virt. eigenvalues --    0.75112   0.75502   0.80402   0.80402   1.09807
 Alpha virt. eigenvalues --    1.10018   1.22513   1.22854   1.22854   1.30926
 Alpha virt. eigenvalues --    1.31739   1.35635   1.42116   1.42116   1.44487
 Alpha virt. eigenvalues --    1.44888   1.44889   1.48839   1.56839   1.56840
 Alpha virt. eigenvalues --    1.58322   1.67133   1.67133   1.72786   1.83906
 Alpha virt. eigenvalues --    2.20699   2.21289   2.21289   2.23169   2.23169
 Alpha virt. eigenvalues --    2.23511   2.24116   2.25410   2.25613   2.25613
 Alpha virt. eigenvalues --    2.26066   2.51247   2.51248   2.56231   2.63208
 Alpha virt. eigenvalues --    2.69502   2.92494   3.15767   3.17032   3.17032
 Alpha virt. eigenvalues --    3.41951   4.02770   4.02770   4.04948   4.17272
          Condensed to atoms (all electrons):
              1          2          3          4          5
     1  Si  11.706641   0.400914   0.400876   0.400950   0.400905
     2  O    0.400914   8.331271  -0.022440  -0.022439  -0.014876
     3  O    0.400876  -0.022440   8.331266  -0.014876  -0.022440
     4  O    0.400950  -0.022439  -0.014876   8.331272  -0.022438
     5  O    0.400905  -0.014876  -0.022440  -0.022438   8.331275
 Mulliken atomic charges:
              1
     1  Si   0.689713
     2  O   -0.672430
     3  O   -0.672387
     4  O   -0.672470
     5  O   -0.672426
 Sum of Mulliken charges=  -2.00000
 Atomic charges with hydrogens summed into heavy atoms:
              1
     1  Si   0.689713
     2  O   -0.672430
     3  O   -0.672387
     4  O   -0.672470
     5  O   -0.672426
 Sum of Mulliken charges=  -2.00000
 Electronic spatial extent (au):  <R**2>=   416.6376
 Charge=    -2.0000 electrons
 Dipole moment (field-independent basis, Debye):
    X=     0.0001    Y=     0.0001    Z=     0.0000  Tot=     0.0002
 Quadrupole moment (field-independent basis, Debye-Ang):
   XX=   -49.3981   YY=   -49.3978   ZZ=   -46.7004
   XY=     0.0000   XZ=    -0.0007   YZ=    -0.0007
 Traceless Quadrupole moment (field-independent basis, Debye-Ang):
   XX=    -0.8993   YY=    -0.8990   ZZ=     1.7983
   XY=     0.0000   XZ=    -0.0007   YZ=    -0.0007
 Octapole moment (field-independent basis, Debye-Ang**2):
  XXX=     0.0010  YYY=     0.0006  ZZZ=     0.0000  XYY=     0.0065
  XXY=     0.0062  XXZ=     0.2469  XZZ=    -0.0048  YZZ=    -0.0043
  YYZ=    -0.2469  XYZ=    12.1909
 Hexadecapole moment (field-independent basis, Debye-Ang**3):
 XXXX=  -198.6484 YYYY=  -198.6443 ZZZZ=  -159.9800 XXXY=    -0.3494
 XXXZ=    -0.0059 YYYX=     0.3494 YYYZ=    -0.0066 ZZZX=     0.0018
 ZZZY=     0.0019 XXYY=   -77.7134 XXZZ=   -65.5893 YYZZ=   -65.5883
 XXYZ=     0.0008 YYXZ=     0.0005 ZZXY=     0.0000
 N-N= 2.201627156609D+02 E-N=-1.863851000622D+03  KE= 5.868747542907D+02
 PrsmSu:  requested number of processors reduced to:   7 ShMem   1 Linda.
 1\1\GINC-COMPUTE-2-4\FOpt\RB3LYP\6-31G(d,p)\O4Si1(2-)\CHENGTAO\04-Oct-
 2012\0\\#n B3LYP/6-31G(d,p) Opt\\sio4\\-2,1\Si,-2.9326806864,0.1945776
 399,0.0201482492\O,-1.296542994,0.2825466122,0.1411961591\O,-3.4534616
 658,1.7507732558,-0.0598441573\O,-3.4225225258,-0.7061134689,1.3039389
 76\O,-3.5582121281,-0.5486040389,-1.3048992269\\Version=EM64T-G03RevD.
 02\State=1-A\HF=-590.2467752\RMSD=6.502e-10\RMSF=1.707e-05\Thermal=0.\
 Dipole=-0.0000054,0.0000601,-0.0000297\PG=C01 [X(O4Si1)]\\@


 "I COULD HAVE DONE IT IN A MUCH MORE COMPLICATED WAY"
 SAID THE RED QUEEN, IMMENSELY PROUD.

                                      -- LEWIS CARROLL
 Job cpu time:  0 days  0 hours  1 minutes 34.6 seconds.
 File lengths (MBytes):  RWF=     17 Int=      0 D2E=      0 Chk=      6 Scr=      1
 Normal termination of Gaussian 03 at Thu Oct  4 14:51:09 2012.
