ITEM: TIMESTEP
0
ITEM: NUMBER OF ATOMS
5000
ITEM: BOX BOUNDS
-6.2035 6.2035
-6.2035 6.2035
-6.2035 6.2035
ITEM: ATOMS
1965739326 1 -2.73852 3.76042 0.0137829
1638062651 1 -4.08446 0.411239 0.994664
574343881 1 -2.25466 -3.0259 -0.036883
139596981 1 0.458509 1.40377 -4.91262
1829669212 1 2.25912 3.56181 -0.516258
402582283 1 -4.2504 3.16903 -1.48312
469860990 1 -1.17479 -5.09076 -1.6916
1085052323 1 -4.94158 -0.619894 3.32586
1582016850 1 4.12502 -1.23867 0.613164
1016879030 1 -2.44926 1.78496 -0.283199
733937651 1 4.57246 0.270752 -2.84532
866626862 1 1.55203 5.47517 -1.67802
2111295689 1 -1.36 -3.87647 -2.60296
1222768040 1 -0.759193 -5.3543 -1.61195
648021045 1 4.82956 3.70284 0.129738
377060993 1 -2.88069 -3.55063 2.21801
1187284778 1 -5.12521 2.50319 -0.991866
1527431349 1 3.80108 1.01128 -0.973026
1082595128 1 -1.20504 -4.92968 0.919393
1082357590 1 2.53048 -1.46759 -0.669716
353579027 1 -2.75725 -0.932397 -0.743352
1560669608 1 -2.45668 1.03259 -2.71376
1356311008 1 -1.99799 5.5861 1.76576
154721079 1 -0.388517 -3.71004 2.95254
1740563790 1 0.848184 -0.221332 2.17393
604501862 1 -3.46892 -1.65739 -2.04911
2049068813 1 2.4825 -1.43206 1.05024
1798858797 1 -3.80247 0.381385 -4.49414
1359207189 1 0.88079 1.87234 4.1832
369837075 1 -3.42612 -1.80885 -4.16966
373889814 1 -4.66326 -0.389143 -1.82965
582642206 1 0.769409 3.34639 1.78508
1276084714 1 1.72157 1.21232 3.09312
1611782593 1 0.760451 1.68624 3.04697
1172499540 1 4.6174 -1.22969 2.60812
793778655 1 -2.60884 -0.451055 -0.200069
1086225731 1 -0.254385 4.97557 1.12057
241535949 1 -0.346425 -3.47745 3.9852
493074616 1 -1.184 1.34672 3.94949
643529235 1 1.62682 -3.09448 1.25299
448748830 1 -0.0895214 -3.33876 2.40489
2034709288 1 -5.05219 1.39014 1.7515
139961856 1 -4.37239 -0.0533145 -2.75219
115197514 1 -2.75026 4.92959 -2.38048
864036211 1 1.06446 -0.55793 2.57185
1612032794 1 -1.00931 -3.16045 -3.35022
365050129 1 -2.89721 4.05253 -3.67908
1231453324 1 2.24262 -0.862374 -2.53304
1136053844 1 -4.33021 1.62251 -1.147
312693932 1 2.78544 3.17939 -0.971918
1533720456 1 5.01373 -2.64793 0.2505
1868884898 1 2.37193 1.23711 -2.0315
1449868182 1 0.714171 5.50095 -2.59883
94957592 1 3.61795 0.201633 1.72972
967820734 1 5.27656 -2.20661 -1.8601
1315394076 1 3.75459 1.26653 -3.89796
738451747 1 -4.08018 -1.97989 -0.490067
1870706531 1 1.69341 -0.510036 1.06978
1335085198 1 2.04477 -0.96363 -4.57644
2060829835 1 1.23997 -3.5314 2.92934
431985304 1 -4.71547 3.15721 -1.57491
296397014 1 1.75886 -4.78194 2.61083
844206480 1 -3.2945 1.76721 -0.832402
41310608 1 2.84055 -0.987119 -2.33208
1239534352 1 3.46597 1.66387 -0.801074
373332678 1 -2.05297 -0.333665 0.0630939
1606417761 1 5.82292 -0.654905 -1.96746
2052215355 1 0.0644075 3.08724 1.10073
1214248742 1 -2.01088 -0.150785 -3.21379
1729847511 1 0.919065 -0.00141578 1.01907
862557180 1 1.10821 2.76616 1.81427
1084687744 1 -3.21766 2.96404 2.42541
1163293117 1 -2.02597 -5.60894 -0.996791
919648951 1 4.84125 1.75326 0.424699
1740046584 1 3.87917 -1.66784 -4.00237
1408254800 1 -3.38615 0.00276806 -3.10524
1420088662 1 -3.09524 0.974419 -0.188595
1421791162 1 -3.34458 3.78338 1.41921
1998790076 1 -3.83525 -4.70613 -1.20666
1450466180 1 5.06031 -1.49044 -0.00969227
1043631639 1 -1.60687 3.37942 -1.3736
1471454843 1 -5.01241 -0.052606 -3.25073
575101928 1 5.47311 0.973103 2.50203
224061719 1 4.66264 2.31945 0.116068
955591557 1 -1.80111 1.8235 2.20282
1558794034 1 0.355585 -3.85813 -4.57667
1014791628 1 3.38698 1.58697 -2.91872
904687118 1 5.3337 2.84056 -0.965756
1071911233 1 -3.09743 1.2883 2.25209
756137325 1 -0.935199 1.78709 -1.73774
872750663 1 -0.0319745 -3.89332 -0.493041
1360550474 1 1.33692 0.50764 -4.11727
787037900 1 -3.59335 3.92359 0.461685
2120755470 1 0.676371 2.94626 1.3772
441839880 1 0.56936 3.4357 1.52491
1392749123 1 -3.79514 -0.472304 2.46478
269863351 1 -1.38292 -4.35098 -0.056994
2085497066 1 -2.55888 -4.34857 3.19791
1437952467 1 0.0665654 2.13413 -0.26376
437096223 1 -3.71456 1.4794 0.701789
44948658 1 2.04809 5.15547 -2.59689
758186848 1 1.94448 0.751766 4.60221
1021027634 1 -0.50253 3.14964 -4.79144
1275222164 1 2.08816 -3.79939 2.57339
777820836 1 -4.58498 0.197849 0.166362
1732974055 1 3.17271 -1.65673 -3.27164
1460107314 1 1.45336 -2.82379 -2.69487
426859554 1 -4.42126 -2.6031 -3.15897
1979421816 1 -3.18178 -1.98333 3.84493
680574165 1 -2.92014 3.28816 3.32971
1938170556 1 -5.53584 -0.733131 -1.57188
158343474 1 -0.868659 3.50267 -1.92254
503533781 1 -4.20238 3.64823 0.293402
859225905 1 1.93933 1.09164 -2.76644
1341985744 1 0.158191 3.61504 0.888208
149636869 1 -4.86249 1.14425 0.488224
1133798638 1 0.028067 0.256455 4.99831
973311103 1 -1.23155 -3.699 2.40502
53023847 1 -0.808883 3.18896 -1.36306
1861094960 1 -1.204 0.213014 -5.5057
1231409209 1 -2.82295 -0.896079 1.7067
1154062326 1 -0.569175 -0.31261 -5.86885
2016735166 1 -1.9868 -4.93476 2.40691
94512182 1 -0.205836 2.06473 -0.446034
942271094 1 -2.6556 -4.61443 1.50219
664335014 1 -0.898569 -2.92152 5.00719
1889643790 1 -0.915288 1.45369 2.69955
627480765 1 -1.05138 -2.92599 4.26184
1014650027 1 3.12437 4.73705 -0.105482
511916188 1 1.37172 2.30306 -2.34539
1759468566 1 5.04714 0.492387 0.0714622
476394183 1 4.4187 -3.24821 -1.81037
768715517 1 -2.3059 4.25633 -2.72676
296784594 1 2.8305 3.76178 -1.9012
225727837 1 3.01128 2.35756 -4.54169
1923878596 1 5.18901 2.89232 0.513511
1760876648 1 -4.69264 2.24414 -0.0885051
1873927348 1 1.33522 -3.18773 -2.74273
40836374 1 -4.51126 -1.54114 3.96708
1970105055 1 -0.575164 -1.71686 3.39342
1922769804 1 1.39136 -2.64996 3.20516
1925469191 1 -2.04314 3.61797 0.514204
1231076601 1 1.4354 5.60302 0.687362
131127087 1 1.55911 0.295784 -3.96711
1001308868 1 0.0252761 2.97625 -3.30582
765924199 1 1.13196 4.86343 2.21274
848543177 1 -3.21064 -3.17568 1.26877
1072097736 1 -3.38124 -4.35906 0.601051
1168889050 1 -4.8026 2.68111 -0.848511
457991272 1 -5.26871 -2.36008 -0.661656
1500028494 1 3.44951 -2.07283 0.749657
1169307975 1 -6.03254 1.1339 0.300464
1352567124 1 0.24264 -3.85028 3.24598
1969806510 1 1.61117 -5.61034 0.352278
396605991 1 2.58456 1.77179 1.69166
1898562203 1 -2.40605 -4.1131 3.05489
1631465288 1 3.38529 -2.0381 1.35111
2088097911 1 -2.75623 3.8248 2.69489
281806289 1 -0.343723 4.71916 -3.053
909956221 1 3.56756 -3.08114 2.13719
2013711800 1 1.52246 4.72678 0.869456
182499992 1 0.0379411 4.91781 -1.87452
479193838 1 -3.71448 2.74687 0.239611
619392261 1 -5.33866 0.594343 1.48126
1416497197 1 -0.297907 5.50487 1.20302
2004359554 1 -4.34866 1.7372 3.50396
1859282843 1 -0.333797 -2.15287 -4.39876
1805539029 1 -1.74519 -1.21393 -5.37071
1698139011 1 -2.71446 -1.33409 -2.52742
1417393991 1 3.18953 -4.2639 -0.467144
196346141 1 2.35504 2.81646 3.50788
979238000 1 -1.20905 2.1976 -0.627942
534943883 1 1.13413 4.2094 2.54041
932804765 1 -0.386925 -1.78086 -5.13208
1129184666 1 -1.25411 1.65716 -1.87827
1590567979 1 0.0346558 -0.66985 -5.01642
1471566765 1 -5.37633 0.33077 0.9177
1682721496 1 1.87492 -2.0942 1.38566
227869288 1 0.896714 -3.44823 -1.32198
67161114 1 2.51336 -3.89311 3.07642
1381310571 1 -2.76218 3.12803 4.31846
22817038 1 -0.58743 3.04947 -0.991464
1889614034 1 0.743622 4.18864 1.11998
1338612536 1 2.06628 0.761006 -1.3919
530270673 1 -2.60049 3.45779 0.700505
838067790 1 5.02861 -0.694079 -2.8007
73348904 1 0.876994 0.116526 -1.85709
1571894728 1 -2.17615 1.26679 0.428214
2038199484 1 0.920781 4.0241 2.47927
1111488506 1 -3.06134 -0.111933 4.60711
2077720125 1 -0.47877 5.45402 2.68029
1846871681 1 2.74328 1.81692 3.28449
1854275640 1 3.67625 -0.103979 1.81807
621011480 1 1.99888 -2.98845 -3.29539
120922607 1 -0.698186 2.6137 -4.72226
194609951 1 0.664461 1.28025 3.44526
923472743 1 0.991603 3.26446 1.90498
1634716574 1 1.65239 4.78351 -0.895078
117134539 1 1.68965 -1.62109 0.127694
2024373165 1 -0.261271 0.897535 -2.05319
1568658274 1 -4.03655 -0.706303 2.67952
430151034 1 -2.69128 3.66741 0.177522
1948663018 1 5.30842 -0.130787 -2.09348
1981319631 1 1.16057 1.80505 2.32966
2095688856 1 -1.41662 -0.0169627 0.269689
1632092394 1 -0.487123 1.54672 3.07754
146876932 1 -0.527066 0.20265 -5.99622
1052865825 1 -3.51084 1.02909 0.503694
538248673 1 4.18365 4.14491 -1.79221
1544532977 1 1.24429 -5.48188 0.433225
1961559868 1 -1.69487 0.832641 -0.90944
1754908351 1 -4.65226 -1.47431 -1.88723
1541071559 1 -3.56397 1.4446 -1.1114
231692409 1 -6.12713 -0.556584 0.373039
2076924910 1 4.12637 -3.27522 3.26303
2115754062 1 -0.442378 -3.24441 0.043318
1684526423 1 -3.96811 -4.36284 -0.770528
1454154625 1 2.6626 -1.81815 0.84033
847417533 1 0.776427 -2.76983 -1.45414
423227387 1 2.11244 -5.04264 0.67429
597263966 1 -2.84653 -0.166029 1.13177
560941811 1 -5.30324 0.403723 -1.27017
1748337405 1 4.61894 -0.0577077 -2.14734
35033302 1 -2.83703 -1.79085 0.545213
1022890653 1 0.773839 3.36649 4.59758
1010699139 1 0.715407 1.44886 -4.04164
924646123 1 0.465152 1.38557 -0.766058
292884085 1 3.33736 -1.14254 3.44563
922818834 1 -5.2104 -2.5949 -1.92508
134646293 1 2.96896 -1.60016 4.5477
1225693581 1 -1.4802 -1.73348 -2.92794
132889954 1 -0.831897 1.00526 -2.88842
197315945 1 4.95617 -2.34 1.83352
548006650 1 -3.10713 -0.389697 1.27132
125438404 1 2.12031 3.10268 0.140049
1280798591 1 1.26579 -3.86144 1.8802
1522072678 1 -0.134125 3.84176 2.34175
112224927 1 2.67285 -3.18547 -2.02888
1255693483 1 4.29036 -1.48801 3.56089
854181318 1 -0.129752 2.88394 -3.74238
500378778 1 -1.44755 1.19594 0.889564
1035415029 1 5.19113 1.19425 -2.81018
2131948228 1 2.82886 0.942169 3.68319
1709065901 1 4.77262 2.09814 2.68039
588324019 1 -0.476109 0.557786 -4.9956
664973221 1 -2.89554 -5.08335 -1.19004
484279182 1 -0.862118 1.7711 2.41917
1280896727 1 1.14498 0.413148 -4.15547
1964228240 1 -1.97084 2.74595 -2.95852
1710874343 1 3.21925 -1.05359 -2.90196
1984281921 1 -1.24166 0.0225586 -5.47428
1206985097 1 4.08827 1.46896 -1.15904
1146274177 1 -1.20182 -0.344788 -0.786593
1884633012 1 2.23696 3.38023 -0.112848
1417868038 1 1.64338 2.32305 -1.30131
1604232408 1 0.654666 -2.0478 -0.285326
1789739395 1 -0.571259 1.88262 3.32925
1390700882 1 -0.832698 -0.0511884 -4.24004
183469802 1 3.59498 -1.37625 -3.96117
48252114 1 0.63776 -0.816072 -5.97779
1305521546 1 3.28796 -0.068366 4.8253
922925751 1 1.23364 1.71604 -4.88343
1000669506 1 -3.40685 -0.514326 3.40926
2115535802 1 3.80117 2.63968 -2.35384
1886316198 1 4.84021 -3.29534 0.151455
1062560858 1 2.06341 2.05903 3.0051
375751570 1 -2.2765 2.11623 -3.47006
257152908 1 4.0867 -0.036087 1.43
572542408 1 1.56971 4.88993 0.992067
1227523325 1 -1.34596 -3.50915 4.59745
409633051 1 -1.50891 -0.2399 0.286969
1515066892 1 -3.23923 0.155939 2.97985
1238345147 1 -5.75787 2.23011 -0.193161
951276592 1 4.18098 -3.52492 0.190148
1577032278 1 4.71344 -0.0190222 2.87547
924772482 1 -0.786152 0.605936 -2.19528
2097392080 1 2.34611 1.58764 -4.02861
96555865 1 1.67263 -2.32383 0.690655
808645425 1 -0.17914 4.09794 2.77894
1460542303 1 -4.66674 3.18769 1.9595
2096860750 1 0.782497 -0.00722084 2.70945
218529199 1 -2.19832 0.851001 -2.50766
183290865 1 0.362453 -0.0987867 2.23209
718775 1 2.06633 1.62249 -1.3515
336249673 1 2.55489 -0.602372 0.0556579
426561357 1 -4.36943 0.138105 1.01626
470056311 1 -5.11799 -0.229416 2.78837
1923457726 1 2.93074 1.19286 -1.36711
772413701 1 0.688161 2.59264 1.11491
570681757 1 3.74859 -0.281047 3.50604
1606352078 1 -5.34618 -1.72739 0.121023
1029114909 1 -0.718473 -3.36082 3.77112
814049935 1 -1.02713 -4.8442 -1.59715
348639579 1 1.17518 -0.699826 -0.127935
1499260017 1 -3.79244 -4.71941 -1.11538
581376707 1 0.723163 -4.67661 -1.30423
318724601 1 3.04372 1.72548 4.9459
582367763 1 -1.26777 -4.51987 2.5889
913348543 1 0.245156 1.211 5.84007
408246243 1 -4.79996 -2.59392 2.2832
1144450981 1 -1.15196 -6.03927 -0.345298
1923968423 1 3.04933 -3.18888 2.79347
1801948471 1 -5.16538 -2.63552 -2.18995
177005553 1 5.4826 -0.730956 -2.23882
1545101097 1 2.55342 -0.554565 -2.90983
1467992977 1 2.87242 1.16114 -0.987422
971092708 1 4.98591 1.32416 -2.98814
343061152 1 0.162463 0.966297 -0.221235
658466175 1 -2.84938 1.57624 2.86598
2062757825 1 -1.86324 -0.247474 -2.94665
1156193773 1 4.51412 -0.101213 -1.32926
1824598247 1 2.26197 1.7673 0.636264
435166526 1 -1.16133 -2.30511 5.14664
1385825239 1 -2.13391 4.12123 -2.85902
1054507719 1 0.717003 3.45631 0.522162
337219008 1 -2.0687 -4.18652 -2.62181
2120174555 1 -5.56977 -0.172585 2.60116
317779326 1 0.611292 0.977406 0.384046
50154825 1 3.02353 -2.58686 -3.13826
809487406 1 -2.49447 -1.23051 1.36125
1301617861 1 0.00498568 -3.0547 -0.0662484
1466708052 1 3.19365 2.93573 -1.83363
1223503796 1 1.19354 -2.28018 2.27604
1803960569 1 2.18653 -0.573125 -4.66774
666223996 1 -1.17771 -4.51877 -3.59788
730897091 1 2.19275 4.68704 3.0126
124643098 1 -0.212665 -1.04422 5.6498
1545288311 1 5.33071 2.23014 0.407802
1915065383 1 -1.51808 -5.62293 -0.421346
1540034031 1 2.84701 -4.11628 -0.76192
1688785849 1 -1.56007 -4.13906 0.946512
902476959 1 2.23919 3.53089 0.880463
1759508494 1 4.69582 1.66599 -2.31339
256275024 1 2.46195 0.649102 3.69542
1145876784 1 -0.532915 1.15622 3.27313
2029428332 1 -1.12625 4.14411 -2.86351
773488773 1 -0.28936 0.280104 5.45815
925874741 1 -2.34328 -3.60616 -0.497279
1617445094 1 -2.02712 -0.128382 1.09617
1776662142 1 -1.09483 -1.22564 -3.77332
1498813537 1 -2.02428 -2.01232 0.43351
504177097 1 -2.69612 -3.25818 4.2963
1847961483 1 -0.857852 -0.977371 0.201672
773016807 1 2.38515 0.245697 -2.10252
1765924072 1 -1.82347 -1.7247 -4.17609
704995494 1 -1.09715 -2.95129 0.904321
1811620512 1 0.336535 -1.4524 -5.8219
1052145265 1 2.01156 -0.874918 -2.44197
115835265 1 0.200291 3.98999 -0.133761
1584143674 1 -2.45619 -3.01308 4.57411
601585278 1 3.19669 4.39763 2.43632
849079604 1 1.84768 -0.785248 3.38808
1196161689 1 -1.12792 0.931725 1.848
528072830 1 -1.98336 3.33515 -1.04772
2120170687 1 -3.40964 2.16303 1.53179
131067098 1 0.260366 -3.71007 2.42741
253063496 1 3.2054 1.89269 -1.08221
741031280 1 -0.0996389 0.31454 1.08809
1833292448 1 -0.470383 -2.45901 -0.802394
1353631832 1 1.27035 -1.71665 -5.50161
1824718850 1 3.8232 0.648213 1.16137
1961826645 1 2.94773 1.2688 -2.87825
1747599036 1 0.178708 1.04236 0.175001
900445302 1 0.777835 -3.91304 3.02763
326157562 1 4.29865 1.39175 3.99646
749059145 1 -1.32369 -1.5144 -5.66807
651823756 1 0.939467 -4.49419 -0.0442994
1401613679 1 -0.119083 -3.90498 2.03536
821600274 1 -1.22556 -2.29679 -3.90801
1886317105 1 0.713777 -1.13295 3.23063
1106342655 1 4.09324 -1.77785 -4.29619
642965909 1 2.71658 -0.308731 -2.71933
1173726895 1 -0.250078 2.91118 -5.02104
2057373391 1 3.86516 -1.28534 -2.08611
1089701446 1 2.32156 -1.62152 5.28741
514050248 1 0.733558 -3.65707 -0.0745321
1693463770 1 0.447595 4.08248 3.41598
1224618615 1 5.17123 1.7708 -2.64916
1930297343 1 3.17994 -4.18989 2.7247
215084270 1 0.201754 3.77012 1.77762
1396847572 1 2.2878 1.68749 -0.749358
537599506 1 -1.34488 2.12682 0.802193
273363778 1 -3.95378 0.681487 2.0763
1403400670 1 0.987803 1.41815 0.911626
1182096955 1 -0.954695 -3.29343 -5.07792
214130368 1 -4.4854 -1.12718 0.964237
448200717 1 2.38105 5.64213 0.555211
1346550429 1 1.36735 3.27029 0.750693
1448214510 1 -1.03347 0.361582 -2.33435
1874935066 1 -2.38705 5.13127 0.118231
1439751718 1 1.97996 1.5074 -0.187122
1389395364 1 1.40278 3.16755 -1.48338
1589319834 1 -1.22107 -1.25887 -3.83628
1351901586 1 5.41322 -0.569004 2.56034
2055876417 1 4.16269 -0.812259 -3.92417
1843713490 1 2.21154 -1.97001 4.41365
1876576816 1 -1.23003 -2.98631 -4.50601
1231771029 1 -1.87242 -5.5167 -1.64146
1439606370 1 0.804705 1.03914 -4.20093
815752997 1 3.34388 -3.22795 3.77118
952766795 1 -5.14587 2.59337 1.02294
496177293 1 -3.5527 4.68911 0.548593
88995412 1 -0.290683 2.85266 3.90743
930238652 1 1.35235 -0.747842 -0.687439
1814395569 1 -0.516829 -1.43637 3.01141
1862935598 1 2.83826 -2.25872 3.2227
2034016580 1 -0.329224 0.250693 -4.97898
1061992340 1 3.53972 0.396602 3.13084
850106603 1 1.96086 3.19993 -3.23203
1378306537 1 -2.89381 -0.714091 -4.14958
1043979820 1 -2.22257 2.84553 -4.23306
1098630718 1 -3.18833 -0.454215 -3.67654
2042209560 1 2.90043 0.440602 -1.78883
1408338872 1 -2.73387 -4.95925 0.191591
1183360880 1 -2.27378 -1.86492 -3.55143
1095511927 1 1.26692 2.64961 3.27786
1818904489 1 4.67528 3.78036 0.157148
469680924 1 -1.50153 -0.333572 1.61643
983021025 1 -2.43094 -0.577741 4.60269
609233663 1 1.57693 2.06031 -0.268045
677084655 1 -1.28585 1.78701 -3.12309
999757812 1 2.79632 0.0782948 0.756871
1056827668 1 3.55136 -2.44593 -4.28515
654327543 1 2.18344 -2.94293 4.97902
2002831724 1 -2.90011 5.05517 -0.993646
1123844911 1 -0.367567 0.991073 -5.6494
1533292014 1 1.44078 -3.2327 -1.73847
514913939 1 0.0154276 -1.25514 -3.26521
435019091 1 4.03374 3.15518 1.5421
711441295 1 -0.0967131 -0.138214 -2.85673
1571751768 1 2.0522 -0.147458 3.06912
1579828265 1 -2.31488 2.12378 -0.613
598391198 1 -4.87786 3.37502 -0.887703
1286466508 1 -1.35101 -1.53302 3.96913
240187369 1 -3.2896 -2.63395 -0.510798
1967762493 1 0.664494 1.83966 0.829833
514109146 1 4.07189 -0.86967 -1.08382
241561834 1 0.34405 0.78224 -4.3301
1742569451 1 2.8406 -0.26303 -3.8546
782999878 1 0.631738 -2.77575 -1.63054
474923738 1 -0.710073 1.34552 -3.76688
655825273 1 -4.19063 2.62199 -1.98203
1285312556 1 -1.63016 -3.43924 0.906995
372345199 1 -2.64429 -0.603398 -4.78699
1184459186 1 4.54007 1.87433 0.515423
424749678 1 2.62949 0.080347 -1.97193
1065328829 1 -3.16715 -4.23584 -0.266377
844493597 1 0.674748 0.481846 -3.39543
1015833433 1 4.02977 -1.50757 -2.59698
1801532392 1 0.37803 1.15377 -0.671482
1567292614 1 0.44352 -2.37908 2.53342
1080370231 1 4.29614 -3.53378 0.0354669
1058536853 1 0.555656 -3.57437 0.251546
1554018092 1 -0.0433444 3.52504 1.79549
256045575 1 2.91588 -0.436183 1.60842
807562340 1 -2.21462 -0.0790683 -1.35112
718553796 1 -3.41572 -0.822136 3.76265
1301904019 1 0.251827 1.67326 -4.29414
247455341 1 -2.65554 -3.67478 0.152011
612720797 1 -0.989105 1.51184 -0.0975949
1500805503 1 -4.51572 -2.06247 1.17862
21603768 1 2.98707 4.92168 1.18537
1305916333 1 -3.10663 -4.38701 2.42787
652336205 1 1.41149 0.648822 -1.0114
368235594 1 -0.920072 -4.51108 1.43882
378211755 1 1.02885 -3.40728 4.65908
901142458 1 0.309488 3.02325 4.9938
1766320133 1 -2.57029 2.3823 1.91892
495903202 1 -2.34162 -0.572635 3.56786
1890734280 1 3.68747 2.26059 3.53468
1726916027 1 4.20903 -3.63206 -1.55162
1090813718 1 3.18068 -4.13465 0.526254
517440785 1 -1.44796 -5.78966 1.38564
1834478 1 0.421012 3.95101 2.27018
505258011 1 -0.430865 4.14781 -2.80514
337670002 1 0.638319 -3.83197 0.792004
267785812 1 -1.51193 -1.4473 5.45308
584859759 1 -0.602903 3.53542 2.56421
945403227 1 -5.4539 -0.731648 -1.46549
1531671767 1 -0.911811 -2.15101 1.99546
1760865941 1 1.5962 3.3561 3.71273
1357089751 1 1.35187 3.5867 -3.94402
1238202433 1 3.431 -2.90459 4.17455
504780039 1 -3.26971 -3.42907 -1.80781
887803707 1 0.844761 4.27874 1.7607
2136564712 1 1.6763 -2.72348 -4.13538
1213065777 1 0.81777 -2.70559 -1.21961
461518818 1 -1.53758 1.64956 -5.4366
2126993347 1 -0.00514709 0.341962 2.90513
902689967 1 -1.97256 -1.26132 4.62728
1304199427 1 3.54041 -0.265649 1.76718
1527428912 1 -2.98963 1.72695 4.78409
964958701 1 -0.421917 5.6555 1.95872
601152541 1 3.05418 3.84537 1.04176
1435268347 1 -2.67694 -3.54564 -0.70108
1868442170 1 3.61265 -2.01742 1.61506
1553781364 1 -2.18525 -2.71274 2.78679
1713850169 1 -2.66267 0.521645 -4.46997
1748974418 1 -2.28352 -4.28982 -1.91018
719516767 1 4.89288 1.03638 -1.04835
540836926 1 0.987074 1.57304 -1.26
1928042014 1 1.91946 2.21099 1.06998
869764108 1 -3.5671 -1.50538 -3.10594
1077958418 1 -0.542287 4.93991 -2.59638
602028468 1 -1.85892 -2.04998 0.308987
767467624 1 3.73043 4.75477 -0.0923778
189283707 1 -1.7169 2.81333 0.529539
1518386259 1 -3.42142 2.65259 3.69115
406236079 1 1.63711 -3.76471 2.22723
748588652 1 1.13468 0.911704 0.344139
1562976270 1 2.28295 -5.36589 2.08245
1032042766 1 -0.397002 2.55584 3.01708
410714480 1 0.661833 -5.66355 -0.676114
29634976 1 -3.11521 0.194648 -3.99565
285817594 1 2.24217 4.09935 1.68651
1266131646 1 -4.80266 1.63659 -0.252814
56090446 1 -5.84503 1.36861 -0.378439
1712523646 1 4.36959 2.59036 -0.0198676
2140892095 1 1.07434 4.23636 -3.36758
1794256811 1 1.88419 4.92762 1.63803
407556624 1 -0.83439 -3.66393 -3.62656
68106937 1 3.97608 1.80713 0.0799562
1939976017 1 -1.44409 -2.73181 4.82295
1410405525 1 1.22641 4.30911 3.49766
11036434 1 0.818861 3.22527 0.94376
163761158 1 3.21866 1.43738 1.5779
27553211 1 2.69734 -0.965394 2.99872
728670688 1 2.2049 -1.99443 3.42978
28126235 1 1.28063 -2.59226 5.36819
471824781 1 -0.622478 -2.88346 -0.594011
1389927216 1 -0.525879 -4.66034 -0.888992
1492543962 1 -3.24129 2.78133 -3.79729
660716499 1 0.528088 4.56008 3.20186
1166481632 1 2.57942 2.2042 -1.26615
213633932 1 -1.00834 0.888482 -5.32921
107058678 1 -1.78622 3.88969 1.49929
983791056 1 -0.0275001 -3.13564 4.31747
1272178065 1 -4.90466 -0.417091 -0.0865335
2012489650 1 -2.74844 -1.80146 -4.04951
1317639458 1 4.68373 -3.07746 1.8996
1751103919 1 3.35364 -0.440171 -3.36991
433444482 1 -0.123048 3.90317 4.74327
2012901548 1 -3.48735 -1.11884 4.61732
1873014993 1 -2.5563 1.74879 -0.309778
1097704756 1 0.882891 -0.0368319 1.31669
294770798 1 -1.44015 1.48485 5.43102
1802028883 1 -1.36434 -2.34964 1.14168
1911089558 1 -1.39469 -3.74549 2.79864
749030039 1 1.74199 -2.94196 -3.66842
1394331677 1 -4.66332 -1.32579 0.484204
1499399840 1 -0.986379 -2.31054 0.618602
888321799 1 -4.39671 0.620822 -0.145595
1375579880 1 -2.84161 -4.41464 -2.94038
422022240 1 -1.90537 -1.09968 4.17673
405671598 1 -0.54486 -1.09579 -4.96347
1417813712 1 3.75251 3.61421 -0.725608
1129345709 1 0.800446 3.90501 -1.62132
774340044 1 -3.76687 3.24238 3.15235
1215387889 1 4.34867 -1.52581 0.934827
883037526 1 -2.52674 2.29627 -4.7392
1848991890 1 1.33775 2.11612 -5.34228
1119669223 1 1.85228 2.12004 -1.46324
1832119384 1 -1.96758 -4.44103 0.157755
563234310 1 -5.27513 1.40937 2.23687
740406990 1 1.91137 2.71445 1.1259
1762960916 1 2.31628 -3.41051 -0.0274725
1551896567 1 -2.6713 4.48748 -1.12485
927127356 1 2.86991 -3.89636 -1.96892
1952881643 1 -2.20649 0.0581506 -2.81739
1607620541 1 5.62517 0.744937 1.48131
2129550266 1 4.22978 -2.24989 2.7299
1921159137 1 0.363792 -2.39906 1.69791
1486373726 1 0.706358 -1.75609 1.75288
1317481476 1 -0.0150016 -3.99197 4.138
567605738 1 3.40775 3.23908 -2.66884
1300210572 1 -1.46756 -0.181876 -4.66982
107453790 1 1.06685 2.46092 -4.3358
728889585 1 4.01888 1.60499 2.14398
2004568734 1 3.84324 2.4495 2.20825
1219192388 1 -3.11164 -1.81078 0.602655
1993898760 1 4.69486 -2.14757 -2.22525
1564952714 1 -5.01025 -0.946283 1.60226
1947690622 1 0.371874 -3.04711 3.38187
139948902 1 5.06941 2.67979 1.8528
1637378627 1 -1.61957 0.950017 -0.892334
1915559729 1 2.62384 4.33121 2.69035
1780289680 1 -3.27323 -0.505834 -2.7439
510041281 1 0.205245 0.395844 2.80023
1450145943 1 -3.62904 -0.464824 4.11292
617856941 1 2.47978 2.51666 1.95517
319509475 1 -3.00443 1.1568 0.558344
1961798618 1 4.38647 0.983239 -0.84219
394707719 1 1.71812 5.38166 2.46021
461387665 1 -4.62323 2.42408 -3.09421
91074178 1 -2.8574 3.2724 -1.06506
342620829 1 2.79177 -1.96376 -2.1966
878471112 1 -2.32448 2.19594 -3.61496
466953690 1 0.565309 -2.62046 2.75483
333211078 1 0.539862 3.94371 3.66842
1926913755 1 0.815117 2.32668 -2.42166
94665094 1 -2.11957 -3.04667 -1.68958
1881035305 1 2.8237 1.05725 2.39423
1699128848 1 3.23319 -2.45693 -3.04113
1953175584 1 4.67057 -0.882375 -3.70656
764061023 1 -2.15254 1.14886 3.66093
1105487655 1 2.85399 1.51529 -4.12575
173450202 1 1.25597 4.79532 -0.936026
1723444736 1 0.302711 0.793644 1.24107
1031850323 1 2.46064 3.46499 -2.40002
1858716662 1 5.13433 1.87445 2.41658
245219742 1 -5.08328 0.0382036 -3.07699
72303818 1 -2.55001 -4.21215 0.807336
516672303 1 -4.36668 -3.31985 -2.46956
1561145502 1 1.87721 -0.696667 3.33106
705870165 1 -1.25946 -1.30744 -1.33706
1083191413 1 -2.86595 -4.04977 0.313173
1948343414 1 -4.79298 3.11514 -1.48814
1586100476 1 1.32968 2.92991 -0.388429
569094152 1 -2.2441 0.793562 -0.145643
132998768 1 0.918781 -4.77397 -0.00187052
1154909245 1 5.78319 1.59311 1.08534
2096172922 1 3.0436 -0.247339 -0.677477
1376122163 1 3.2815 2.98971 -0.289062
828761169 1 -1.07824 4.73498 2.24375
1805012483 1 2.95633 -3.11943 3.83403
2051040809 1 2.01539 1.48108 4.03342
352313598 1 -0.145126 5.04286 3.09559
606688465 1 -1.89623 3.63141 3.08963
224399876 1 4.11171 -1.50084 -1.21217
98898928 1 -0.568476 -0.977677 -4.9322
94006207 1 -1.03698 3.34803 4.55964
140671986 1 -4.27887 -3.94724 -0.933173
34144392 1 -1.37984 -2.23413 -5.43497
1063988983 1 -5.20206 1.16946 2.34736
593296741 1 -2.19548 -1.00895 2.90705
185068419 1 0.222679 -4.35195 -3.98261
2053165676 1 0.0775696 0.976532 -1.89938
1990037146 1 -0.293226 -2.67394 -2.76957
1992060609 1 2.93118 -3.9721 2.99166
882395320 1 -4.81881 3.14028 -0.794518
913837122 1 2.7017 -2.12236 -0.405534
370123035 1 3.10705 -0.883503 2.15949
1292563092 1 4.12061 -0.875995 4.27664
323133994 1 -2.53586 -2.13633 0.65513
827296213 1 5.74773 1.16267 -0.0800376
1957081758 1 -5.2345 1.93709 0.635894
340425241 1 3.47392 -1.29549 0.95768
121941467 1 3.83995 -3.14263 -1.56316
2131360777 1 0.749918 -1.65306 -3.614
1269506091 1 -2.99199 -0.792312 -3.66913
1882651516 1 -4.28179 -3.3833 -1.81757
258355090 1 -1.81688 -2.63003 3.32989
621011261 1 -2.62716 1.92748 0.381311
110351258 1 -3.73894 1.18767 -1.73356
1006130358 1 -4.27193 1.07997 -0.465639
1575834113 1 -4.68165 0.843004 -0.443386
1070208236 1 -3.02204 2.94027 0.0756823
155147724 1 1.06524 0.186728 -0.640308
860308115 1 -4.78044 2.93347 -2.6037
2041737126 1 -0.786754 2.90212 3.96197
78313728 1 0.363732 -3.42029 -3.05295
710745568 1 4.4139 2.91593 0.350439
200568456 1 -2.65089 0.00596618 1.01754
783658900 1 3.88139 -1.50534 -2.41836
74319995 1 -0.0817316 3.51472 2.13451
1202788155 1 -1.34949 -0.835954 -5.14518
419149713 1 1.77586 -4.42168 2.86948
1332357836 1 1.31249 -0.681511 -2.48607
1404841200 1 3.35495 -3.25548 0.110467
1998443881 1 3.32313 -4.53331 0.065226
1919156511 1 1.62909 -2.07185 4.84355
1454378195 1 3.17954 1.56594 3.42105
901946768 1 3.56427 3.72258 -3.208
1936462497 1 4.05282 1.28088 1.62497
1460489718 1 -3.51531 0.431621 -3.84341
1706013862 1 3.51473 2.31278 -0.192568
1439721093 1 1.73109 -0.0582799 0.643672
2058579636 1 -0.723471 -0.506011 -5.72269
1334295372 1 -2.08666 4.0625 2.67495
442360988 1 -1.32542 -5.72635 -1.5768
777349627 1 0.146422 4.33473 -0.121701
462080886 1 1.72291 -0.993093 -3.49048
1341290364 1 -3.96343 -0.178623 0.385721
942687241 1 2.03146 -1.41088 -2.81644
1424814028 1 -3.20997 -4.27567 0.248177
1886666766 1 2.34761 2.02573 1.60553
804959610 1 -1.13061 5.44343 -1.51389
1783709139 1 2.76542 1.75564 3.17875
214505851 1 0.649602 -0.299947 -3.95758
1393271434 1 -1.04917 -3.11675 -0.785368
1860017515 1 1.38273 1.28004 -0.117794
761669142 1 2.3748 -0.062566 3.04869
1611116842 1 -1.59727 3.51408 3.80564
1248287724 1 3.33289 -1.77525 2.2224
2000557678 1 -2.19055 -5.02365 -2.72179
875036442 1 -0.426895 -3.56422 -2.7536
28238939 1 -1.56141 -1.75119 -2.89793
1617192271 1 4.38327 -3.18402 -2.31207
310061344 1 -0.129826 1.64793 4.39035
1157600281 1 3.7825 -1.00754 1.83822
998669211 1 4.78188 -3.60176 -0.962689
48576325 1 2.55215 2.96842 1.64209
1923125198 1 1.80554 -1.78893 -4.36392
1900823789 1 4.07109 -1.76794 0.977197
1278817097 1 4.51842 -2.21396 -1.33956
362656272 1 -1.33409 -2.56539 -2.16131
1641699015 1 2.66317 -4.58877 -1.51582
11611471 1 3.72078 3.74862 0.291077
4084774 1 1.26874 -4.01211 0.591214
1755113877 1 -1.48058 4.42328 -0.748615
724598870 1 -1.26314 -1.19055 3.01702
1045895081 1 -0.39648 -1.07733 -4.92436
1208397628 1 3.51666 -2.56217 2.41659
611081374 1 -4.88305 2.90322 -2.35522
1821112809 1 -2.90659 -4.73499 -2.48155
1840796941 1 4.87721 -1.81293 1.76356
678277092 1 -0.257477 2.63072 -4.05642
577825770 1 -4.75172 1.83908 3.50957
710136434 1 2.39107 0.344513 -3.84643
861832200 1 1.82961 5.68418 0.0862466
448916516 1 -2.07295 -1.24812 3.16783
1539145606 1 3.31879 -3.02231 -1.6574
1753295614 1 -2.19146 4.53713 2.07414
1002055124 1 -3.67799 -4.25868 0.453753
281225576 1 -4.08976 -1.79509 3.75161
795646409 1 0.437808 0.884543 2.91911
1050265891 1 4.15735 -3.73452 0.965401
1738369732 1 -2.76437 3.42579 -3.60409
2069310494 1 1.80001 4.49408 -1.89978
1779982963 1 0.310497 -4.8265 -1.94401
736890503 1 -5.25741 1.51316 -2.6347
1669825052 1 -0.861611 -2.1126 2.32524
473878594 1 -1.7289 -0.422715 4.651
1745286777 1 -1.49283 -3.02951 1.38788
954540757 1 0.660098 2.40663 1.45987
227751115 1 -2.1423 -0.454613 2.03365
805283172 1 -1.80875 -2.5299 -1.20632
222501265 1 -1.54205 0.959172 4.09151
792844168 1 -0.71289 3.63214 2.94056
1074760341 1 4.9467 -0.202285 -0.277252
846476185 1 -0.381968 -5.31344 2.70216
80574666 1 -4.82514 -3.86229 0.0354755
326817769 1 5.39988 -1.43282 0.634077
405656537 1 -0.854943 -1.70123 5.51863
690804181 1 0.24458 3.93813 -3.32901
1830034082 1 -3.05557 -2.35317 3.74215
835352877 1 3.24118 -4.7023 1.16623
18285948 1 -2.26617 1.94665 0.0952117
65216991 1 3.36606 -2.57096 3.47957
2025829706 1 5.57999 -1.61956 1.00828
1010388534 1 -1.52378 -2.13199 -0.904618
963817697 1 -0.385069 4.60365 3.5121
1358323279 1 -1.23947 -0.379686 -4.18526
652290405 1 2.656 -1.0642 4.90499
304907441 1 5.91082 0.253281 1.28831
1481651620 1 2.40337 -3.7422 -4.01518
1009969332 1 -1.34872 -0.298026 3.50437
55870778 1 1.92868 -4.11104 0.372212
1846347853 1 4.99706 2.46477 -1.69112
190894369 1 1.84086 -3.67106 0.474405
1957240369 1 5.65014 -1.34059 -0.181684
1554285881 1 -1.44361 5.32259 2.29752
297586512 1 4.27138 2.06314 -2.40212
280405969 1 0.0199619 0.511139 5.05655
2034586205 1 0.416504 2.62712 -2.50115
641073304 1 -1.93532 4.28209 -4.01656
10104114 1 0.298745 -3.84017 -0.438193
256899025 1 5.04937 0.758688 -3.13493
1202257997 1 3.81213 0.742453 -3.03824
597696659 1 -1.42463 1.82369 5.37378
2120112791 1 5.17044 0.894565 -2.33656
1631336576 1 -0.21399 1.50085 1.30509
170008253 1 -0.899729 2.39572 4.04108
933365376 1 -3.01349 -2.27283 1.65753
273150836 1 -3.60741 3.38595 -3.23102
1861895623 1 1.79872 -4.77175 0.0890648
1225507236 1 -4.33695 0.087959 1.89294