ITEM: TIMESTEP
0
ITEM: NUMBER OF ATOMS
1200
ITEM: BOX BOUNDS
0 35.8569
0 35.8569
-0.1 0.1
ITEM: ATOMS
1 2 0.972698 0.992397 0.5
2 1 0.0517232 0.999069 0.5
3 1 0.0504894 0.0385782 0.5
4 1 0.0753815 0.0186588 0.5
5 1 0.101582 0.0037848 0.5
6 1 0.183199 0.0203537 0.5
7 1 0.204727 0.0420042 0.5
8 1 0.214286 0.00459287 0.5
9 1 0.214984 0.976716 0.5
10 2 0.308406 0.00042825 0.5
11 1 0.337314 0.992107 0.5
12 2 0.37121 0.978323 0.5
13 1 0.417916 0.957371 0.5
14 1 0.450154 0.0148253 0.5
15 1 0.483997 0.0103531 0.5
16 1 0.50438 0.986676 0.5
17 1 0.519758 0.0132212 0.5
18 1 0.602914 0.000665177 0.5
19 1 0.635391 0.974366 0.5
20 1 0.649394 0.0219459 0.5
21 1 0.684257 0.0127787 0.5
22 1 0.681101 0.068793 0.5
23 1 0.713975 0.0173326 0.5
24 2 0.776847 0.0221365 0.5
25 2 0.79174 0.954316 0.5
26 1 0.852325 0.0303799 0.5
27 1 0.868221 0.995845 0.5
28 1 0.839286 0.975502 0.5
29 1 0.934362 0.993728 0.5
30 1 0.950943 0.97181 0.5
31 1 0.972928 0.0411065 0.5
32 1 0.0227598 0.986157 0.5
33 2 0.0263798 0.0201954 0.5
34 1 0.109566 0.0679061 0.5
35 2 0.12026 0.0297607 0.5
36 1 0.202744 0.0752928 0.5
37 1 0.174184 0.0607847 0.5
38 2 0.25533 0.0401598 0.5
39 1 0.239916 0.0149523 0.5
40 2 0.275518 0.0162305 0.5
41 1 0.389136 0.0624393 0.5
42 2 0.390736 0.0285367 0.5
43 1 0.440349 0.0451613 0.5
44 1 0.46948 0.0407288 0.5
45 1 0.482863 0.0695084 0.5
46 1 0.498041 0.0347362 0.5
47 1 0.552212 0.0188236 0.5
48 1 0.569813 0.999316 0.5
49 1 0.616465 0.0264442 0.5
50 1 0.604252 0.056156 0.5
51 1 0.673269 0.0408288 0.5
52 1 0.70208 0.0461079 0.5
53 1 0.765163 0.0517309 0.5
54 1 0.795151 0.0589026 0.5
55 1 0.809477 0.0204525 0.5
56 1 0.836968 0.00670928 0.5
57 1 0.901112 0.00949102 0.5
58 1 0.893257 0.97963 0.5
59 1 0.910812 0.0405756 0.5
60 1 0.930771 0.020795 0.5
61 1 0.977905 0.0709653 0.5
62 1 0.0343748 0.0680054 0.5
63 2 0.0628054 0.0650172 0.5
64 1 0.084896 0.0841678 0.5
65 2 0.132003 0.0905072 0.5
66 1 0.161829 0.0924907 0.5
67 1 0.189318 0.103647 0.5
68 1 0.221854 0.0968462 0.5
69 1 0.285722 0.0470641 0.5
70 1 0.315695 0.0501747 0.5
71 1 0.345317 0.0619092 0.5
72 1 0.363676 0.011246 0.5
73 1 0.421953 0.0677358 0.5
74 1 0.452023 0.0733431 0.5
75 1 0.465732 0.095597 0.5
76 1 0.51216 0.0684772 0.5
77 1 0.530719 0.0433155 0.5
78 1 0.562678 0.0443982 0.5
79 1 0.585841 0.0259204 0.5
80 1 0.640194 0.0557799 0.5
81 1 0.654727 0.0825737 0.5
82 2 0.711342 0.081405 0.5
83 1 0.737361 0.0408379 0.5
84 1 0.774877 0.0793862 0.5
85 1 0.814973 0.113737 0.5
86 2 0.832561 0.0831037 0.5
87 1 0.855188 0.0611137 0.5
88 1 0.879889 0.0293702 0.5
89 1 0.887088 0.0640797 0.5
90 1 0.946249 0.0516894 0.5
91 1 0.00646736 0.0813848 0.5
92 1 0.0282019 0.0999645 0.5
93 1 0.0560289 0.0940503 0.5
94 1 0.0762948 0.117363 0.5
95 1 0.106189 0.108427 0.5
96 1 0.144406 0.118181 0.5
97 1 0.174054 0.127719 0.5
98 1 0.261859 0.0698824 0.5
99 1 0.252385 0.0996868 0.5
100 2 0.288955 0.0801593 0.5
101 1 0.318159 0.0796752 0.5
102 1 0.364232 0.0409757 0.5
103 2 0.382756 0.120955 0.5
104 1 0.400815 0.0895738 0.5
105 1 0.479749 0.125405 0.5
106 1 0.499931 0.0999983 0.5
107 1 0.546567 0.0717751 0.5
108 1 0.562049 0.0981389 0.5
109 2 0.593042 0.104772 0.5
110 1 0.624796 0.087327 0.5
111 1 0.642932 0.109528 0.5
112 1 0.682228 0.100487 0.5
113 1 0.724807 0.106669 0.5
114 1 0.803963 0.0882073 0.5
115 1 0.79338 0.142691 0.5
116 2 0.824104 0.150658 0.5
117 1 0.86466 0.0894554 0.5
118 1 0.893736 0.0912655 0.5
119 1 0.919425 0.0683174 0.5
120 1 0.948719 0.0833667 0.5
121 1 0.976206 0.132478 0.5
122 1 0.00576534 0.11945 0.5
123 1 0.0436759 0.12281 0.5
124 1 0.0623007 0.144631 0.5
125 2 0.0933732 0.141365 0.5
126 1 0.150881 0.15139 0.5
127 2 0.134424 0.173573 0.5
128 1 0.208357 0.125941 0.5
129 2 0.255879 0.156433 0.5
130 1 0.269742 0.128887 0.5
131 2 0.355436 0.135217 0.5
132 1 0.341905 0.163082 0.5
133 2 0.378587 0.152631 0.5
134 1 0.431151 0.0973658 0.5
135 1 0.509294 0.128581 0.5
136 1 0.541226 0.125844 0.5
137 1 0.530138 0.0980597 0.5
138 1 0.569488 0.128653 0.5
139 1 0.617536 0.153525 0.5
140 1 0.617588 0.123708 0.5
141 1 0.666432 0.125964 0.5
142 1 0.695532 0.127884 0.5
143 1 0.718695 0.14414 0.5
144 1 0.756077 0.100153 0.5
145 1 0.801705 0.171276 0.5
146 1 0.84635 0.169038 0.5
147 1 0.865862 0.142286 0.5
148 1 0.918819 0.13345 0.5
149 1 0.923941 0.098039 0.5
150 1 0.98063 0.100953 0.5
151 2 0.97481 0.162008 0.5
152 1 0.0137279 0.177362 0.5
153 1 0.00219381 0.148536 0.5
154 1 0.0335241 0.155074 0.5
155 1 0.122182 0.13944 0.5
156 1 0.118366 0.198792 0.5
157 2 0.193793 0.152788 0.5
158 1 0.246365 0.186027 0.5
159 2 0.221956 0.167427 0.5
160 1 0.287695 0.15347 0.5
161 1 0.319281 0.139275 0.5
162 2 0.422593 0.203277 0.5
163 1 0.433096 0.232571 0.5
164 2 0.448914 0.12368 0.5
165 1 0.459848 0.152972 0.5
166 1 0.535086 0.15699 0.5
167 1 0.556611 0.185562 0.5
168 2 0.561721 0.158466 0.5
169 1 0.608923 0.181707 0.5
170 1 0.63877 0.177535 0.5
171 1 0.646783 0.1504 0.5
172 1 0.678521 0.154299 0.5
173 2 0.767763 0.156781 0.5
174 1 0.784682 0.112451 0.5
175 2 0.773269 0.186537 0.5
176 2 0.851075 0.199266 0.5
177 1 0.879638 0.175161 0.5
178 1 0.882326 0.119083 0.5
179 1 0.947868 0.146048 0.5
180 1 0.951572 0.116231 0.5
181 1 0.988305 0.188336 0.5
182 1 0.0183819 0.211832 0.5
183 1 0.0608325 0.174254 0.5
184 1 0.0899401 0.189274 0.5
185 1 0.102162 0.22455 0.5
186 1 0.163312 0.232957 0.5
187 1 0.184479 0.20971 0.5
188 1 0.20983 0.223633 0.5
189 1 0.274824 0.180343 0.5
190 1 0.29873 0.201043 0.5
191 1 0.312137 0.171523 0.5
192 2 0.363616 0.213065 0.5
193 1 0.452684 0.208721 0.5
194 1 0.438714 0.175941 0.5
195 1 0.490398 0.153291 0.5
196 1 0.485296 0.20583 0.5
197 1 0.503003 0.179099 0.5
198 1 0.581257 0.197577 0.5
199 1 0.548711 0.213098 0.5
200 1 0.637855 0.240047 0.5
201 2 0.663838 0.219702 0.5
202 1 0.704768 0.169058 0.5
203 1 0.736257 0.172752 0.5
204 1 0.753512 0.230356 0.5
205 2 0.786145 0.212529 0.5
206 1 0.888097 0.201857 0.5
207 1 0.90521 0.180099 0.5
208 1 0.89446 0.149563 0.5
209 1 0.933191 0.173801 0.5
210 1 0.959325 0.223552 0.5
211 1 0.987551 0.216115 0.5
212 1 0.0374198 0.193558 0.5
213 1 0.0739222 0.210309 0.5
214 1 0.118177 0.254676 0.5
215 1 0.139636 0.286954 0.5
216 1 0.131555 0.226794 0.5
217 1 0.193177 0.247467 0.5
218 1 0.240739 0.222459 0.5
219 1 0.267948 0.208174 0.5
220 1 0.287366 0.262192 0.5
221 1 0.294533 0.233178 0.5
222 1 0.37489 0.243581 0.5
223 1 0.399994 0.238906 0.5
224 1 0.44677 0.258708 0.5
225 1 0.469722 0.182661 0.5
226 1 0.498613 0.247064 0.5
227 1 0.510532 0.220411 0.5
228 1 0.527436 0.191903 0.5
229 1 0.563458 0.242759 0.5
230 2 0.606694 0.229725 0.5
231 1 0.599605 0.258677 0.5
232 2 0.71061 0.199211 0.5
233 2 0.715735 0.26038 0.5
234 1 0.725481 0.231385 0.5
235 1 0.782492 0.24686 0.5
236 1 0.866133 0.253941 0.5
237 1 0.869914 0.225872 0.5
238 2 0.896182 0.238438 0.5
239 1 0.930236 0.201839 0.5
240 2 0.98367 0.242457 0.5
241 1 0.0473018 0.237697 0.5
242 1 0.0566085 0.26856 0.5
243 1 0.0756965 0.246035 0.5
244 1 0.0392897 0.297033 0.5
245 2 0.0990481 0.275216 0.5
246 1 0.148412 0.258066 0.5
247 2 0.222992 0.251896 0.5
248 1 0.256421 0.268544 0.5
249 1 0.264065 0.238582 0.5
250 1 0.32058 0.25393 0.5
251 1 0.344012 0.23622 0.5
252 1 0.38551 0.272563 0.5
253 1 0.415592 0.264516 0.5
254 1 0.47899 0.26768 0.5
255 1 0.466843 0.23601 0.5
256 1 0.497275 0.292773 0.5
257 2 0.520946 0.272724 0.5
258 1 0.531933 0.242469 0.5
259 1 0.577054 0.278782 0.5
260 1 0.66872 0.25285 0.5
261 1 0.664811 0.31068 0.5
262 2 0.729299 0.288831 0.5
263 1 0.749938 0.261984 0.5
264 1 0.777914 0.276019 0.5
265 1 0.811572 0.247249 0.5
266 1 0.838519 0.266879 0.5
267 1 0.889521 0.274725 0.5
268 1 0.912999 0.296581 0.5
269 1 0.922727 0.259928 0.5
270 1 0.0135207 0.241016 0.5
271 1 0.977049 0.295477 0.5
272 1 0.994097 0.269122 0.5
273 1 0.00743889 0.295923 0.5
274 1 0.116891 0.303591 0.5
275 2 0.161228 0.305772 0.5
276 1 0.19014 0.318212 0.5
277 1 0.23438 0.293755 0.5
278 1 0.256475 0.317445 0.5
279 1 0.270581 0.29246 0.5
280 1 0.326916 0.213975 0.5
281 1 0.354563 0.265828 0.5
282 1 0.360198 0.296779 0.5
283 1 0.407896 0.296032 0.5
284 2 0.436784 0.285991 0.5
285 1 0.46255 0.331914 0.5
286 1 0.489561 0.319494 0.5
287 1 0.523383 0.308596 0.5
288 1 0.55068 0.321712 0.5
289 1 0.578119 0.308397 0.5
290 1 0.626676 0.270305 0.5
291 1 0.65811 0.281515 0.5
292 1 0.704817 0.311169 0.5
293 1 0.73284 0.318726 0.5
294 2 0.79616 0.303973 0.5
295 1 0.809566 0.278044 0.5
296 1 0.832217 0.297515 0.5
297 1 0.86297 0.288488 0.5
298 1 0.930744 0.324247 0.5
299 1 0.942207 0.293339 0.5
300 1 0.959936 0.319902 0.5
301 1 0.992479 0.325468 0.5
302 1 0.0265691 0.268064 0.5
303 1 0.0532043 0.322592 0.5
304 1 0.13902 0.327688 0.5
305 1 0.172711 0.33966 0.5
306 2 0.203636 0.348646 0.5
307 1 0.17538 0.36882 0.5
308 1 0.222171 0.321034 0.5
309 2 0.238482 0.345503 0.5
310 2 0.323745 0.339048 0.5
311 2 0.331834 0.305269 0.5
312 1 0.35813 0.326978 0.5
313 1 0.382969 0.354331 0.5
314 1 0.385307 0.314438 0.5
315 1 0.431759 0.317735 0.5
316 1 0.513393 0.369963 0.5
317 2 0.528342 0.343429 0.5
318 1 0.573213 0.338474 0.5
319 1 0.603865 0.292965 0.5
320 1 0.633663 0.302378 0.5
321 1 0.684655 0.332906 0.5
322 1 0.716669 0.343153 0.5
323 1 0.716223 0.375617 0.5
324 1 0.756816 0.338002 0.5
325 1 0.820895 0.332585 0.5
326 1 0.853108 0.348951 0.5
327 1 0.849081 0.320542 0.5
328 2 0.883529 0.309032 0.5
329 1 0.940675 0.35186 0.5
330 1 0.969494 0.34809 0.5
331 1 0.0189356 0.385996 0.5
332 2 0.0162757 0.352277 0.5
333 2 0.0473485 0.371995 0.5
334 1 0.0889495 0.322203 0.5
335 1 0.113063 0.341924 0.5
336 1 0.142184 0.358953 0.5
337 1 0.212017 0.440842 0.5
338 1 0.218991 0.409819 0.5
339 2 0.276164 0.340836 0.5
340 1 0.324634 0.367995 0.5
341 1 0.355917 0.361848 0.5
342 1 0.377527 0.383153 0.5
343 2 0.413275 0.412028 0.5
344 1 0.406301 0.333104 0.5
345 1 0.432735 0.352369 0.5
346 1 0.510935 0.398232 0.5
347 1 0.549224 0.361027 0.5
348 1 0.576336 0.371772 0.5
349 2 0.60074 0.32812 0.5
350 1 0.637685 0.371479 0.5
351 1 0.66136 0.353864 0.5
352 1 0.690916 0.363981 0.5
353 1 0.733476 0.402183 0.5
354 1 0.747607 0.36621 0.5
355 1 0.812017 0.365117 0.5
356 1 0.843844 0.377219 0.5
357 1 0.875786 0.370622 0.5
358 1 0.898151 0.390673 0.5
359 1 0.910585 0.352567 0.5
360 1 0.991513 0.369189 0.5
361 1 0.992971 0.398953 0.5
362 1 0.0412796 0.401216 0.5
363 2 0.0766088 0.410329 0.5
364 1 0.0954422 0.366645 0.5
365 1 0.122538 0.377731 0.5
366 1 0.151617 0.38805 0.5
367 1 0.18109 0.398528 0.5
368 1 0.242291 0.398261 0.5
369 1 0.277336 0.392078 0.5
370 1 0.308324 0.393246 0.5
371 2 0.346717 0.388677 0.5
372 1 0.383978 0.41249 0.5
373 1 0.428044 0.43721 0.5
374 1 0.441548 0.383606 0.5
375 1 0.461353 0.359193 0.5
376 2 0.480322 0.397904 0.5
377 1 0.542834 0.391073 0.5
378 2 0.569788 0.404461 0.5
379 2 0.608937 0.35878 0.5
380 1 0.641509 0.400959 0.5
381 1 0.665787 0.382644 0.5
382 1 0.67544 0.408959 0.5
383 1 0.704434 0.406077 0.5
384 1 0.763052 0.39167 0.5
385 1 0.780258 0.363701 0.5
386 1 0.835609 0.408495 0.5
387 1 0.864291 0.400354 0.5
388 1 0.927281 0.379836 0.5
389 1 0.972339 0.41891 0.5
390 1 0.957335 0.377414 0.5
391 1 0.993756 0.436187 0.5
392 1 0.0152267 0.416789 0.5
393 1 0.0522965 0.42812 0.5
394 1 0.0694159 0.454351 0.5
395 1 0.0947557 0.433769 0.5
396 1 0.141747 0.417204 0.5
397 1 0.169217 0.432171 0.5
398 1 0.1843 0.458376 0.5
399 2 0.287654 0.420024 0.5
400 1 0.31968 0.431014 0.5
401 1 0.330813 0.457319 0.5
402 1 0.409618 0.464314 0.5
403 1 0.38869 0.442223 0.5
404 1 0.440168 0.463045 0.5
405 1 0.460064 0.442182 0.5
406 1 0.487328 0.42972 0.5
407 1 0.545266 0.425426 0.5
408 1 0.601382 0.456708 0.5
409 1 0.621852 0.425224 0.5
410 1 0.639227 0.452125 0.5
411 1 0.654126 0.426908 0.5
412 1 0.671187 0.453025 0.5
413 2 0.696097 0.433086 0.5
414 1 0.749467 0.428935 0.5
415 1 0.812603 0.469157 0.5
416 2 0.788253 0.39256 0.5
417 1 0.886573 0.418959 0.5
418 2 0.94237 0.405911 0.5
419 2 0.88396 0.447703 0.5
420 2 0.965484 0.471368 0.5
421 1 0.993159 0.467151 0.5
422 1 0.0211177 0.44819 0.5
423 1 0.0459696 0.471706 0.5
424 1 0.0766639 0.483928 0.5
425 1 0.102954 0.46531 0.5
426 1 0.123327 0.441437 0.5
427 2 0.201388 0.508401 0.5
428 1 0.265197 0.475448 0.5
429 1 0.244422 0.454396 0.5
430 1 0.273614 0.447774 0.5
431 2 0.322069 0.48529 0.5
432 1 0.361229 0.455472 0.5
433 1 0.420404 0.492717 0.5
434 1 0.485938 0.498408 0.5
435 1 0.459114 0.486264 0.5
436 1 0.481326 0.464029 0.5
437 2 0.532613 0.455409 0.5
438 1 0.565524 0.450838 0.5
439 1 0.575674 0.479171 0.5
440 1 0.621393 0.477261 0.5
441 1 0.648409 0.487347 0.5
442 1 0.700551 0.463425 0.5
443 2 0.748166 0.484469 0.5
444 1 0.775635 0.420861 0.5
445 1 0.796079 0.443568 0.5
446 1 0.825698 0.438227 0.5
447 2 0.856879 0.433542 0.5
448 1 0.903327 0.48946 0.5
449 1 0.914364 0.461313 0.5
450 2 0.989149 0.497646 0.5
451 1 0.0155281 0.512234 0.5
452 2 0.0333108 0.53793 0.5
453 1 0.0177329 0.481539 0.5
454 1 0.131252 0.482652 0.5
455 2 0.174736 0.485863 0.5
456 1 0.142735 0.511381 0.5
457 1 0.173742 0.515852 0.5
458 1 0.237737 0.489694 0.5
459 1 0.229262 0.524887 0.5
460 2 0.294773 0.527115 0.5
461 1 0.301377 0.462494 0.5
462 1 0.324013 0.514359 0.5
463 1 0.390914 0.487452 0.5
464 2 0.410134 0.516915 0.5
465 1 0.510371 0.520575 0.5
466 1 0.509377 0.481339 0.5
467 2 0.546566 0.479784 0.5
468 1 0.567745 0.507769 0.5
469 1 0.600801 0.505408 0.5
470 2 0.630756 0.515429 0.5
471 1 0.665565 0.516008 0.5
472 1 0.682306 0.491562 0.5
473 1 0.767467 0.506782 0.5
474 1 0.790548 0.537961 0.5
475 2 0.787986 0.48802 0.5
476 1 0.873041 0.539312 0.5
477 1 0.881624 0.510858 0.5
478 1 0.847547 0.522223 0.5
479 1 0.904009 0.530092 0.5
480 2 0.985182 0.528067 0.5
481 1 0.0416585 0.568621 0.5
482 1 0.0633319 0.547539 0.5
483 2 0.0758007 0.519015 0.5
484 1 0.104002 0.500018 0.5
485 1 0.0938025 0.54815 0.5
486 1 0.146339 0.53943 0.5
487 2 0.20134 0.538014 0.5
488 1 0.232201 0.550104 0.5
489 1 0.262618 0.542701 0.5
490 1 0.28813 0.559958 0.5
491 1 0.315093 0.548688 0.5
492 1 0.29166 0.489395 0.5
493 2 0.380398 0.521573 0.5
494 1 0.445022 0.542129 0.5
495 1 0.441562 0.512581 0.5
496 1 0.511637 0.550843 0.5
497 1 0.553668 0.574029 0.5
498 1 0.59194 0.565608 0.5
499 1 0.568938 0.545133 0.5
500 1 0.599612 0.537114 0.5
501 1 0.670874 0.562788 0.5
502 1 0.723185 0.576179 0.5
503 1 0.737551 0.513105 0.5
504 1 0.731592 0.546638 0.5
505 1 0.807372 0.510541 0.5
506 1 0.8327 0.49582 0.5
507 1 0.894148 0.559659 0.5
508 1 0.923598 0.552236 0.5
509 1 0.938904 0.579033 0.5
510 2 0.927647 0.52043 0.5
511 1 0.989218 0.600697 0.5
512 1 0.0762857 0.579682 0.5
513 1 0.104296 0.585264 0.5
514 1 0.126731 0.565105 0.5
515 1 0.115498 0.526943 0.5
516 1 0.157891 0.576048 0.5
517 1 0.173678 0.546191 0.5
518 1 0.224131 0.57762 0.5
519 2 0.257451 0.577367 0.5
520 2 0.340894 0.599163 0.5
521 2 0.313814 0.584246 0.5
522 1 0.339604 0.567986 0.5
523 1 0.373228 0.554478 0.5
524 2 0.425499 0.569335 0.5
525 1 0.527178 0.576031 0.5
526 2 0.470037 0.55846 0.5
527 1 0.540842 0.5456 0.5
528 1 0.576683 0.596177 0.5
529 1 0.614437 0.588114 0.5
530 1 0.622472 0.562079 0.5
531 2 0.699571 0.549731 0.5
532 1 0.696653 0.578661 0.5
533 1 0.760223 0.536451 0.5
534 1 0.81406 0.564304 0.5
535 1 0.820718 0.536702 0.5
536 2 0.849394 0.558749 0.5
537 1 0.875071 0.581397 0.5
538 1 0.906474 0.589136 0.5
539 1 0.960204 0.598802 0.5
540 1 0.979696 0.57296 0.5
541 1 0.0179875 0.590508 0.5
542 1 0.0398691 0.612148 0.5
543 1 0.0684467 0.613139 0.5
544 1 0.103876 0.615654 0.5
545 1 0.135236 0.594943 0.5
546 1 0.157453 0.615737 0.5
547 1 0.181622 0.60322 0.5
548 1 0.210024 0.603483 0.5
549 1 0.251273 0.635649 0.5
550 1 0.278226 0.620662 0.5
551 1 0.365248 0.581688 0.5
552 1 0.392392 0.637561 0.5
553 2 0.408029 0.611591 0.5
554 1 0.434798 0.61207 0.5
555 1 0.471893 0.60673 0.5
556 1 0.507258 0.600794 0.5
557 1 0.542218 0.602056 0.5
558 1 0.593442 0.621782 0.5
559 1 0.622726 0.624756 0.5
560 2 0.645675 0.582495 0.5
561 2 0.673515 0.59467 0.5
562 1 0.756561 0.582176 0.5
563 1 0.730035 0.605305 0.5
564 1 0.759625 0.615022 0.5
565 2 0.782022 0.598542 0.5
566 1 0.813102 0.60909 0.5
567 1 0.86362 0.608359 0.5
568 1 0.896108 0.621476 0.5
569 1 0.931513 0.607384 0.5
570 1 0.970554 0.626848 0.5
571 1 0.0112199 0.620286 0.5
572 1 0.0482838 0.639767 0.5
573 1 0.0519285 0.667849 0.5
574 1 0.0842377 0.639279 0.5
575 1 0.131478 0.626995 0.5
576 1 0.156447 0.646629 0.5
577 1 0.185682 0.633039 0.5
578 1 0.216426 0.633159 0.5
579 1 0.282997 0.649978 0.5
580 1 0.307074 0.636937 0.5
581 1 0.375849 0.611497 0.5
582 1 0.384893 0.666989 0.5
583 1 0.413515 0.671435 0.5
584 1 0.422703 0.642729 0.5
585 1 0.475991 0.658484 0.5
586 1 0.494792 0.574621 0.5
587 2 0.542723 0.645166 0.5
588 1 0.579028 0.649138 0.5
589 1 0.614032 0.652698 0.5
590 1 0.680213 0.639082 0.5
591 1 0.698199 0.661205 0.5
592 1 0.699899 0.690501 0.5
593 2 0.712219 0.638511 0.5
594 1 0.780767 0.658071 0.5
595 1 0.785459 0.629545 0.5
596 1 0.839086 0.626662 0.5
597 1 0.872415 0.636839 0.5
598 1 0.892664 0.658812 0.5
599 1 0.918877 0.644304 0.5
600 1 0.946946 0.63984 0.5
601 1 0.00292338 0.673279 0.5
602 1 0.0222181 0.650146 0.5
603 1 0.0638385 0.699668 0.5
604 2 0.0817145 0.669469 0.5
605 1 0.152489 0.675973 0.5
606 2 0.182894 0.66227 0.5
607 1 0.207037 0.707807 0.5
608 1 0.23348 0.657999 0.5
609 1 0.263839 0.674205 0.5
610 1 0.30652 0.669392 0.5
611 1 0.339073 0.658258 0.5
612 1 0.363954 0.640581 0.5
613 1 0.455241 0.63551 0.5
614 1 0.445151 0.663206 0.5
615 1 0.487914 0.629089 0.5
616 1 0.521462 0.625627 0.5
617 1 0.547799 0.674525 0.5
618 1 0.613354 0.681737 0.5
619 1 0.651624 0.645705 0.5
620 1 0.63978 0.670631 0.5
621 1 0.668766 0.671601 0.5
622 1 0.730608 0.664932 0.5
623 1 0.757137 0.677533 0.5
624 1 0.807494 0.671711 0.5
625 1 0.812313 0.64056 0.5
626 2 0.831033 0.692598 0.5
627 1 0.865819 0.669313 0.5
628 1 0.913465 0.680582 0.5
629 1 0.940216 0.668819 0.5
630 1 0.992945 0.643812 0.5
631 2 0.00738615 0.705657 0.5
632 1 0.0295835 0.685292 0.5
633 1 0.0391386 0.715257 0.5
634 1 0.125954 0.692232 0.5
635 1 0.156708 0.706423 0.5
636 1 0.181973 0.689517 0.5
637 1 0.181108 0.721339 0.5
638 1 0.238589 0.691498 0.5
639 2 0.285582 0.697378 0.5
640 1 0.330441 0.741154 0.5
641 1 0.331913 0.690195 0.5
642 1 0.344935 0.7181 0.5
643 2 0.392493 0.697511 0.5
644 1 0.435935 0.695606 0.5
645 1 0.493007 0.688994 0.5
646 2 0.506182 0.721944 0.5
647 2 0.521137 0.689462 0.5
648 1 0.578826 0.731394 0.5
649 2 0.580225 0.677846 0.5
650 2 0.662139 0.697514 0.5
651 1 0.644859 0.753883 0.5
652 1 0.702453 0.72398 0.5
653 1 0.730465 0.693085 0.5
654 1 0.783827 0.69034 0.5
655 1 0.802211 0.712313 0.5
656 1 0.856954 0.706398 0.5
657 1 0.886187 0.697606 0.5
658 1 0.910225 0.713555 0.5
659 1 0.936743 0.698886 0.5
660 1 0.969775 0.662998 0.5
661 1 0.985717 0.73822 0.5
662 1 0.0151429 0.733607 0.5
663 1 0.0969969 0.698282 0.5
664 1 0.12845 0.722333 0.5
665 1 0.129477 0.755441 0.5
666 1 0.155082 0.739581 0.5
667 1 0.207825 0.766453 0.5
668 1 0.204982 0.738228 0.5
669 1 0.229818 0.722856 0.5
670 2 0.261806 0.721313 0.5
671 1 0.361182 0.751901 0.5
672 1 0.375489 0.725561 0.5
673 1 0.445587 0.729491 0.5
674 1 0.464909 0.687321 0.5
675 1 0.477668 0.718239 0.5
676 1 0.511609 0.765225 0.5
677 1 0.551485 0.74847 0.5
678 1 0.617181 0.743559 0.5
679 2 0.642503 0.72392 0.5
680 1 0.643979 0.799634 0.5
681 1 0.686491 0.75477 0.5
682 1 0.759848 0.710315 0.5
683 1 0.750512 0.743714 0.5
684 1 0.778801 0.73248 0.5
685 1 0.832075 0.720612 0.5
686 1 0.829097 0.762513 0.5
687 1 0.8835 0.728763 0.5
688 1 0.911136 0.74155 0.5
689 1 0.935144 0.729033 0.5
690 1 0.962933 0.717286 0.5
691 1 0.98259 0.767791 0.5
692 1 0.0120044 0.763229 0.5
693 1 0.0676709 0.734519 0.5
694 1 0.0689005 0.771966 0.5
695 1 0.0951105 0.728105 0.5
696 1 0.149234 0.780203 0.5
697 1 0.267919 0.752859 0.5
698 1 0.26323 0.784124 0.5
699 1 0.291992 0.773247 0.5
700 1 0.318623 0.765536 0.5
701 1 0.344457 0.780636 0.5
702 1 0.379117 0.77633 0.5
703 2 0.399722 0.748377 0.5
704 1 0.406653 0.783685 0.5
705 1 0.458089 0.762258 0.5
706 1 0.484961 0.749591 0.5
707 1 0.535895 0.782119 0.5
708 2 0.56317 0.774482 0.5
709 1 0.623881 0.774958 0.5
710 1 0.615262 0.806185 0.5
711 1 0.665267 0.773022 0.5
712 1 0.718064 0.749426 0.5
713 1 0.729776 0.723228 0.5
714 2 0.784815 0.76031 0.5
715 1 0.809036 0.742569 0.5
716 1 0.859189 0.768738 0.5
717 1 0.856674 0.736616 0.5
718 1 0.886963 0.758807 0.5
719 1 0.932565 0.759823 0.5
720 1 0.958537 0.75036 0.5
721 2 0.984079 0.796591 0.5
722 1 0.0431629 0.753636 0.5
723 2 0.0605153 0.801005 0.5
724 1 0.0964295 0.763368 0.5
725 1 0.118005 0.783064 0.5
726 2 0.174572 0.797017 0.5
727 1 0.175448 0.763128 0.5
728 1 0.239955 0.750475 0.5
729 1 0.287098 0.807364 0.5
730 1 0.274012 0.83609 0.5
731 1 0.311785 0.795078 0.5
732 2 0.345668 0.812913 0.5
733 1 0.438417 0.78614 0.5
734 1 0.425699 0.75908 0.5
735 1 0.46748 0.790338 0.5
736 2 0.48437 0.817562 0.5
737 1 0.497416 0.790273 0.5
738 1 0.52295 0.809896 0.5
739 1 0.588668 0.797746 0.5
740 1 0.665578 0.851216 0.5
741 1 0.683374 0.800193 0.5
742 1 0.709162 0.778108 0.5
743 1 0.739678 0.781325 0.5
744 1 0.767289 0.786963 0.5
745 1 0.810041 0.815924 0.5
746 1 0.827193 0.791832 0.5
747 1 0.854649 0.799849 0.5
748 1 0.881129 0.789227 0.5
749 1 0.930362 0.796722 0.5
750 1 0.95194 0.780693 0.5
751 1 0.985197 0.823841 0.5
752 1 0.0350333 0.784453 0.5
753 1 0.0901775 0.792137 0.5
754 1 0.106655 0.814602 0.5
755 1 0.137086 0.809067 0.5
756 2 0.165016 0.824075 0.5
757 1 0.19498 0.822981 0.5
758 1 0.235048 0.782175 0.5
759 1 0.223687 0.82542 0.5
760 1 0.252496 0.812891 0.5
761 1 0.31217 0.826341 0.5
762 2 0.33921 0.843168 0.5
763 1 0.40374 0.835104 0.5
764 1 0.420174 0.809893 0.5
765 1 0.44844 0.812589 0.5
766 1 0.434142 0.840078 0.5
767 1 0.534442 0.837172 0.5
768 1 0.565004 0.883612 0.5
769 2 0.56456 0.84416 0.5
770 2 0.643679 0.832488 0.5
771 1 0.693563 0.864293 0.5
772 2 0.716518 0.807234 0.5
773 1 0.731295 0.834827 0.5
774 2 0.7474 0.809863 0.5
775 1 0.817028 0.846494 0.5
776 1 0.838883 0.824172 0.5
777 1 0.878538 0.819053 0.5
778 1 0.908287 0.775402 0.5
779 1 0.903868 0.808003 0.5
780 1 0.959974 0.808234 0.5
781 1 0.991342 0.856147 0.5
782 1 0.0154896 0.840187 0.5
783 2 0.049101 0.855703 0.5
784 1 0.113408 0.844523 0.5
785 2 0.180405 0.881865 0.5
786 1 0.182903 0.850286 0.5
787 1 0.216524 0.855713 0.5
788 1 0.245378 0.88383 0.5
789 1 0.272238 0.867898 0.5
790 1 0.298511 0.853394 0.5
791 1 0.360688 0.87404 0.5
792 1 0.323862 0.865652 0.5
793 1 0.384733 0.893043 0.5
794 1 0.417909 0.862677 0.5
795 1 0.454533 0.86976 0.5
796 1 0.513089 0.887527 0.5
797 1 0.484273 0.868254 0.5
798 1 0.590562 0.905796 0.5
799 1 0.60299 0.832663 0.5
800 1 0.643592 0.878434 0.5
801 1 0.672711 0.88601 0.5
802 1 0.724007 0.864775 0.5
803 1 0.757037 0.855684 0.5
804 1 0.791007 0.838716 0.5
805 1 0.819557 0.874399 0.5
806 1 0.849215 0.869222 0.5
807 1 0.86153 0.842353 0.5
808 1 0.90584 0.845509 0.5
809 1 0.935356 0.828746 0.5
810 1 0.962693 0.84487 0.5
811 1 0.996275 0.892455 0.5
812 1 0.0169562 0.873569 0.5
813 2 0.0486474 0.889209 0.5
814 1 0.119896 0.87425 0.5
815 1 0.120334 0.910168 0.5
816 1 0.165925 0.911941 0.5
817 1 0.209783 0.886974 0.5
818 1 0.246873 0.846668 0.5
819 2 0.263867 0.930158 0.5
820 1 0.299232 0.883666 0.5
821 1 0.37451 0.920161 0.5
822 1 0.387222 0.861009 0.5
823 1 0.341675 0.919751 0.5
824 1 0.415679 0.890687 0.5
825 1 0.465608 0.84139 0.5
826 2 0.519667 0.918034 0.5
827 1 0.540096 0.864814 0.5
828 1 0.574302 0.938817 0.5
829 1 0.588995 0.866419 0.5
830 1 0.615917 0.891053 0.5
831 2 0.685307 0.913128 0.5
832 1 0.708698 0.892468 0.5
833 1 0.736316 0.906863 0.5
834 2 0.744425 0.881189 0.5
835 1 0.786297 0.866441 0.5
836 1 0.837772 0.895747 0.5
837 1 0.877105 0.866046 0.5
838 1 0.906072 0.876895 0.5
839 1 0.935868 0.859619 0.5
840 1 0.965868 0.873243 0.5
841 2 0.0329365 0.951425 0.5
842 2 0.0613878 0.938062 0.5
843 1 0.0944285 0.922295 0.5
844 1 0.112746 0.974328 0.5
845 1 0.0964637 0.892151 0.5
846 2 0.162386 0.940637 0.5
847 1 0.195466 0.914248 0.5
848 1 0.237048 0.950447 0.5
849 1 0.267495 0.960844 0.5
850 1 0.273933 0.899927 0.5
851 1 0.332776 0.890991 0.5
852 1 0.403658 0.927071 0.5
853 1 0.385439 0.950094 0.5
854 2 0.438612 0.934746 0.5
855 2 0.466965 0.932634 0.5
856 1 0.496127 0.939726 0.5
857 1 0.520918 0.963902 0.5
858 1 0.542933 0.939986 0.5
859 2 0.611944 0.95131 0.5
860 2 0.646029 0.946629 0.5
861 1 0.71358 0.92477 0.5
862 1 0.714516 0.960296 0.5
863 1 0.74192 0.93614 0.5
864 1 0.773769 0.934035 0.5
865 1 0.818628 0.949065 0.5
866 1 0.801199 0.895203 0.5
867 2 0.900023 0.906595 0.5
868 2 0.936332 0.894067 0.5
869 2 0.91589 0.933693 0.5
870 1 0.998277 0.932706 0.5
871 1 0.00170887 0.96059 0.5
872 1 0.0540125 0.968287 0.5
873 1 0.0876417 0.952613 0.5
874 1 0.0824171 0.983418 0.5
875 1 0.131537 0.996876 0.5
876 2 0.158306 0.0021583 0.5
877 1 0.186991 0.990438 0.5
878 2 0.180931 0.960691 0.5
879 1 0.246259 0.983836 0.5
880 2 0.309749 0.968747 0.5
881 2 0.31063 0.912807 0.5
882 1 0.354932 0.945451 0.5
883 1 0.424894 0.988057 0.5
884 1 0.46132 0.986458 0.5
885 1 0.450415 0.958902 0.5
886 1 0.481492 0.965591 0.5
887 1 0.535986 0.989653 0.5
888 1 0.556837 0.967013 0.5
889 1 0.587056 0.973378 0.5
890 1 0.657859 0.994801 0.5
891 1 0.678309 0.973349 0.5
892 1 0.702553 0.987705 0.5
893 1 0.733289 0.981842 0.5
894 2 0.778667 0.988171 0.5
895 1 0.799004 0.92434 0.5
896 1 0.828794 0.922886 0.5
897 2 0.86617 0.961109 0.5
898 1 0.885256 0.932132 0.5
899 1 0.957717 0.0188494 0.5
900 2 0.973174 0.94971 0.5
901 3 0.643053 0.599939 0.5
902 4 0.65356 0.61593 0.5
903 3 0.279253 0.514296 0.5
904 4 0.257086 0.513341 0.5
905 3 0.242501 0.143861 0.5
906 4 0.236359 0.127206 0.5
907 3 0.845302 0.574267 0.5
908 4 0.834833 0.588375 0.5
909 3 0.630307 0.842379 0.5
910 4 0.624742 0.859201 0.5
911 3 0.911727 0.22619 0.5
912 4 0.929403 0.230305 0.5
913 3 0.538783 0.908875 0.5
914 4 0.557198 0.912924 0.5
915 3 0.0882761 0.397804 0.5
916 4 0.109631 0.404922 0.5
917 3 0.609981 0.379997 0.5
918 4 0.601755 0.398058 0.5
919 3 0.031976 0.343708 0.5
920 4 0.022975 0.322718 0.5
921 3 0.407058 0.393959 0.5
922 4 0.406614 0.373442 0.5
923 3 0.694127 0.215591 0.5
924 4 0.694321 0.234352 0.5
925 3 0.566283 0.822531 0.5
926 4 0.558582 0.805273 0.5
927 3 0.540583 0.496592 0.5
928 4 0.536069 0.512011 0.5
929 3 0.35218 0.195553 0.5
930 4 0.370237 0.183521 0.5
931 3 0.632248 0.709161 0.5
932 4 0.611044 0.712987 0.5
933 3 0.620037 0.331004 0.5
934 4 0.637338 0.335057 0.5
935 3 0.326102 0.959431 0.5
936 4 0.32419 0.941992 0.5
937 3 0.144125 0.942415 0.5
938 4 0.126152 0.94674 0.5
939 3 0.284308 0.321771 0.5
940 4 0.297418 0.310436 0.5
941 3 0.204333 0.555758 0.5
942 4 0.19322 0.572852 0.5
943 3 0.434476 0.58158 0.5
944 4 0.449673 0.584345 0.5
945 3 0.854443 0.94904 0.5
946 4 0.854447 0.932407 0.5
947 3 0.143675 0.0711933 0.5
948 4 0.138357 0.0548475 0.5
949 3 0.0273001 0.931177 0.5
950 4 0.021517 0.911685 0.5
951 3 0.969909 0.541473 0.5
952 4 0.954498 0.547505 0.5
953 3 0.806076 0.396216 0.5
954 4 0.808059 0.415838 0.5
955 3 0.666762 0.945783 0.5
956 4 0.686334 0.942868 0.5
957 3 0.762675 0.824158 0.5
958 4 0.780082 0.815797 0.5
959 3 0.204847 0.183557 0.5
960 4 0.216016 0.195157 0.5
961 3 0.581451 0.698929 0.5
962 4 0.561666 0.701427 0.5
963 3 0.509462 0.338623 0.5
964 4 0.491993 0.349918 0.5
965 3 0.841295 0.216411 0.5
966 4 0.83716 0.233571 0.5
967 3 0.968253 0.25133 0.5
968 4 0.962799 0.268491 0.5
969 3 0.411364 0.0376365 0.5
970 4 0.418821 0.0190685 0.5
971 3 0.327985 0.614846 0.5
972 4 0.3391 0.629522 0.5
973 3 0.100929 0.66487 0.5
974 4 0.122347 0.66242 0.5
975 3 0.0897592 0.157788 0.5
976 4 0.10662 0.16416 0.5
977 3 0.301923 0.699921 0.5
978 4 0.312424 0.715298 0.5
979 3 0.748458 0.144137 0.5
980 4 0.742916 0.128796 0.5
981 3 0.343361 0.12043 0.5
982 4 0.339701 0.100968 0.5
983 3 0.897531 0.322082 0.5
984 4 0.883863 0.339627 0.5
985 3 0.909387 0.952181 0.5
986 4 0.922917 0.968258 0.5
987 3 0.853146 0.453778 0.5
988 4 0.841837 0.467954 0.5
989 3 0.296303 0.921597 0.5
990 4 0.294677 0.942762 0.5
991 3 0.164803 0.87495 0.5
992 4 0.147962 0.891027 0.5
993 3 0.824591 0.0640885 0.5
994 4 0.827563 0.0456409 0.5
995 3 0.178463 0.16068 0.5
996 4 0.175915 0.178892 0.5
997 3 0.837459 0.135606 0.5
998 4 0.843725 0.118929 0.5
999 3 0.958624 0.935608 0.5
1000 4 0.943078 0.944695 0.5
1001 3 0.728843 0.481163 0.5
1002 4 0.712263 0.491795 0.5
1003 3 0.390172 0.980939 0.5
1004 4 0.394322 0.000159306 0.5
1005 3 0.960885 0.17446 0.5
1006 4 0.957408 0.193317 0.5
1007 3 0.063604 0.36982 0.5
1008 4 0.0653602 0.349419 0.5
1009 3 0.762022 0.979673 0.5
1010 4 0.759287 0.963349 0.5
1011 3 0.0585148 0.516415 0.5
1012 4 0.0457733 0.506301 0.5
1013 3 0.246252 0.366211 0.5
1014 4 0.261386 0.367542 0.5
1015 3 0.363198 0.525609 0.5
1016 4 0.344983 0.535565 0.5
1017 3 0.158578 0.981963 0.5
1018 4 0.145294 0.971145 0.5
1019 3 0.922359 0.411876 0.5
1020 4 0.916316 0.429055 0.5
1021 3 0.542114 0.270895 0.5
1022 4 0.547361 0.287101 0.5
1023 3 0.694007 0.532656 0.5
1024 4 0.707895 0.520673 0.5
1025 3 0.354452 0.842006 0.5
1026 4 0.373685 0.835576 0.5
1027 3 0.747601 0.296097 0.5
1028 4 0.761947 0.302354 0.5
1029 3 0.340166 0.490946 0.5
1030 4 0.358566 0.492833 0.5
1031 3 0.405665 0.730172 0.5
1032 4 0.416871 0.714981 0.5
1033 3 0.14727 0.186659 0.5
1034 4 0.151368 0.204512 0.5
1035 3 0.170401 0.290046 0.5
1036 4 0.179111 0.271647 0.5
1037 3 0.37356 0.69228 0.5
1038 4 0.358249 0.681948 0.5
1039 3 0.264347 0.419514 0.5
1040 4 0.246252 0.426806 0.5
1041 3 0.698376 0.270097 0.5
1042 4 0.690435 0.285772 0.5
1043 3 0.148477 0.836749 0.5
1044 4 0.140329 0.853807 0.5
1045 3 0.79149 0.320616 0.5
1046 4 0.791391 0.337726 0.5
1047 3 0.723259 0.0679508 0.5
1048 4 0.740906 0.0752579 0.5
1049 3 0.138318 0.0245438 0.5
1050 4 0.154586 0.0309722 0.5
1051 3 0.30032 0.600843 0.5
1052 4 0.28658 0.587223 0.5
1053 3 0.442822 0.916452 0.5
1054 4 0.449933 0.901322 0.5
1055 3 0.192092 0.790501 0.5
1056 4 0.210982 0.798507 0.5
1057 3 0.789586 0.581811 0.5
1058 4 0.777381 0.564611 0.5
1059 3 0.516792 0.45281 0.5
1060 4 0.517903 0.430341 0.5
1061 3 0.576386 0.421551 0.5
1062 4 0.591525 0.430765 0.5
1063 3 0.500236 0.831392 0.5
1064 4 0.505841 0.848633 0.5
1065 3 0.667325 0.914724 0.5
1066 4 0.647656 0.911975 0.5
1067 3 0.78128 0.466836 0.5
1068 4 0.768216 0.452537 0.5
1069 3 0.953116 0.899918 0.5