ITEM: TIMESTEP
0
ITEM: NUMBER OF ATOMS
1890
ITEM: BOX BOUNDS
0 27.9398
0 27.9398
0 27.9398
ITEM: ATOMS
1 1 0.410912 0.570945 0.36491 0 0 0
2 2 0.376227 0.6013 0.339084 0 0 0
3 3 0.397383 0.536983 0.387988 0 0 0
4 4 0.341786 0.595759 0.359913 0 0 0
5 4 0.383625 0.638262 0.34943 0 0 0
6 4 0.372515 0.590369 0.30347 0 0 0
7 5 0.456231 0.579625 0.356278 0 0 0
8 6 0.498146 0.549854 0.363668 0 0 0
9 1 0.502899 0.544048 0.417594 0 0 0
10 3 0.503107 0.577592 0.446252 0 0 0
11 7 0.543161 0.566167 0.342192 0 0 0
12 8 0.53514 0.573308 0.292635 0 0 0
13 8 0.523558 0.536224 0.260861 0 0 0
14 8 0.549753 0.612678 0.267288 0 0 0
15 8 0.506367 0.544392 0.216124 0 0 0
16 8 0.55713 0.605774 0.21725 0 0 0
17 8 0.516528 0.585813 0.192558 0 0 0
18 9 0.503153 0.597356 0.144552 0 0 0
19 10 0.469384 0.603934 0.332906 0 0 0
20 4 0.490358 0.515748 0.34674 0 0 0
21 4 0.553125 0.603669 0.355052 0 0 0
22 4 0.575437 0.546704 0.352216 0 0 0
23 11 0.524696 0.500748 0.269459 0 0 0
24 11 0.565713 0.643158 0.285259 0 0 0
25 11 0.471754 0.530211 0.213717 0 0 0
26 11 0.573619 0.629435 0.190049 0 0 0
27 10 0.472928 0.581565 0.140253 0 0 0
28 5 0.512284 0.5001 0.42908 0 0 0
29 7 0.528926 0.492863 0.477845 0 0 0
30 1 0.504875 0.451514 0.49888 0 0 0
31 3 0.506238 0.41006 0.482491 0 0 0
32 10 0.516883 0.470995 0.407677 0 0 0
33 4 0.566983 0.493153 0.478575 0 0 0
82 15 0 0 0 0 0 0
83 16 0.997924 8.60464e-05 0.0341963 -1 0 0
85 15 0 0 0.111111 0 0 0
86 16 0.0148781 0.00839659 0.140807 0 0 0
87 16 0.00583773 0.966407 0.107775 0 -1 0
88 15 0 0 0.222222 0 0 0
89 16 0.00852651 0.977858 0.197509 0 -1 0
90 16 0.988205 0.980337 0.247677 -1 -1 0
91 15 0 0 0.333333 0 0 0
92 16 0.972369 0.0181394 0.324322 -1 0 0
93 16 0.00314638 0.00531103 0.367032 0 0 0
94 15 0 0 0.444445 0 0 0
95 16 0.99244 0.00457809 0.477545 -1 0 0
96 16 0.994428 0.966656 0.438894 -1 -1 0
109 15 0 0.111111 0 0 0 0
112 15 0 0.111111 0.111111 0 0 0
113 16 0.983508 0.140498 0.104935 -1 0 0
114 16 0.0322317 0.120594 0.117812 0 0 0
115 15 0 0.111111 0.222222 0 0 0
116 16 0.0291997 0.115206 0.204778 0 0 0
117 16 0.975348 0.117909 0.199423 -1 0 0
118 15 0 0.111111 0.333333 0 0 0
119 16 0.0216169 0.134752 0.321187 0 0 0
120 16 0.985583 0.125893 0.360672 -1 0 0
121 15 0 0.111111 0.444445 0 0 0
122 16 0.0318966 0.114424 0.43239 0 0 0
123 16 0.981103 0.103748 0.416832 -1 0 0
136 15 0 0.222222 0 0 0 0
139 15 0 0.222222 0.111111 0 0 0
140 16 0.989182 0.236964 0.0821395 -1 0 0
141 16 0.977817 0.196689 0.11656 -1 0 0
142 15 0 0.222222 0.222222 0 0 0
143 16 0.0185802 0.193441 0.221865 0 0 0
144 16 0.0167329 0.24351 0.201233 0 0 0
145 15 0 0.222222 0.333333 0 0 0
146 16 0.00245965 0.255488 0.341144 0 0 0
147 16 0.0311917 0.213734 0.321987 0 0 0
148 15 0 0.222222 0.444445 0 0 0
149 16 0.00324273 0.210247 0.412512 0 0 0
150 16 0.0295645 0.238404 0.450594 0 0 0
163 15 0 0.333333 0 0 0 0
166 15 0 0.333333 0.111111 0 0 0
167 16 0.0286631 0.317501 0.121184 0 0 0
168 16 0.0107309 0.363328 0.0985071 0 0 0
169 15 0 0.333333 0.222222 0 0 0
170 16 0.0156064 0.355698 0.242957 0 0 0
171 16 0.979208 0.315559 0.24285 -1 0 0
172 15 0 0.333333 0.333333 0 0 0
173 16 0.972081 0.344958 0.34943 -1 0 0
174 16 0.988173 0.309502 0.311748 -1 0 0
175 15 0 0.333333 0.444445 0 0 0
176 16 0.0241107 0.3362 0.420275 0 0 0
177 16 0.999054 0.299866 0.451707 -1 0 0
190 15 0 0.444445 0 0 0 0
192 16 0.0106563 0.411886 8.2997e-05 0 0 0
193 15 0 0.444445 0.111111 0 0 0
194 16 0.993675 0.462308 0.139652 -1 0 0
195 16 0.97194 0.425325 0.106549 -1 0 0
196 15 0 0.444445 0.222222 0 0 0
197 16 0.997128 0.460064 0.252578 -1 0 0
198 16 0.974865 0.421166 0.222129 -1 0 0
199 15 0 0.444445 0.333333 0 0 0
200 16 0.997059 0.418056 0.354982 -1 0 0
201 16 0.975187 0.439423 0.310251 -1 0 0
202 15 0 0.444445 0.444445 0 0 0
203 16 0.0209998 0.459026 0.421639 0 0 0
204 16 6.54844e-05 0.411202 0.436152 0 0 0
217 15 0 0.555555 0 0 0 0
220 15 0 0.555555 0.111111 0 0 0
221 16 0.968752 0.567821 0.104268 -1 0 0
222 16 0.0134051 0.548565 0.0803681 0 0 0
223 15 0 0.555555 0.222222 0 0 0
224 16 0.996221 0.545494 0.189692 -1 0 0
225 16 0.0160788 0.585731 0.220066 0 0 0
226 15 0 0.555555 0.333333 0 0 0
227 16 0.980544 0.5514 0.305443 -1 0 0
228 16 0.0311394 0.562882 0.32107 0 0 0
229 15 0 0.555555 0.444445 0 0 0
230 16 0.985653 0.586608 0.446345 -1 0 0
231 16 0.00331563 0.545616 0.477061 0 0 0
244 15 0 0.666665 0 0 0 0
246 16 0.985059 0.657027 0.0292841 -1 0 0
247 15 0 0.666665 0.111111 0 0 0
248 16 0.988389 0.639851 0.0932297 -1 0 0
249 16 0.977747 0.691809 0.104309 -1 0 0
250 15 0 0.666665 0.222222 0 0 0
251 16 0.0117314 0.691508 0.201753 0 0 0
252 16 0.988193 0.642714 0.200762 -1 0 0
253 15 0 0.666665 0.333333 0 0 0
254 16 0.00422104 0.673383 0.366663 0 0 0
255 16 0.00210562 0.697267 0.318072 0 0 0
256 15 0 0.666665 0.444445 0 0 0
257 16 0.99128 0.677052 0.475905 -1 0 0
258 16 0.033453 0.673659 0.442054 0 0 0
271 15 0 0.777776 0 0 0 0
272 16 0.0303838 0.791745 0.00744426 0 0 0
273 16 0.977061 0.800009 0.0123818 -1 0 0
274 15 0 0.777776 0.111111 0 0 0
275 16 0.985929 0.807758 0.102345 -1 0 0
276 16 0.0331501 0.781197 0.103169 0 0 0
277 15 0 0.777776 0.222222 0 0 0
278 16 0.974888 0.756101 0.230775 -1 0 0
279 16 0.012856 0.788284 0.25219 0 0 0
280 15 0 0.777776 0.333333 0 0 0
281 16 0.99123 0.748534 0.348875 -1 0 0
282 16 0.0304534 0.771147 0.319109 0 0 0
283 15 0 0.777776 0.444445 0 0 0
284 16 0.971834 0.796656 0.439541 -1 0 0
285 16 0.991829 0.746827 0.432236 -1 0 0
298 15 0 0.88889 0 0 0 0
299 16 0.0246896 0.895268 0.0228783 0 0 0
301 15 0 0.88889 0.111111 0 0 0
302 16 0.0152801 0.90214 0.0834587 0 0 0
303 16 0.970525 0.906152 0.113738 -1 0 0
304 15 0 0.88889 0.222222 0 0 0
305 16 0.984812 0.858381 0.218725 -1 0 0
306 16 0.0309989 0.884702 0.208249 0 0 0
307 15 0 0.88889 0.333333 0 0 0
308 16 0.983253 0.878199 0.305423 -1 0 0
309 16 0.0309209 0.898088 0.3218 0 0 0
310 15 0 0.88889 0.444445 0 0 0
311 16 0.974727 0.898314 0.423321 -1 0 0
312 16 0.996631 0.909498 0.471603 -1 0 0
325 15 0.111111 0 0 0 0 0
327 16 0.120062 0.0311717 0.0110412 0 0 0
328 15 0.111111 0 0.111111 0 0 0
329 16 0.0841241 0.00666594 0.131135 0 0 0
330 16 0.107967 0.0218432 0.0849061 0 0 0
331 15 0.111111 0 0.222222 0 0 0
332 16 0.121857 0.0103149 0.19137 0 0 0
333 16 0.0786108 0.990384 0.217225 0 -1 0
334 15 0.111111 0 0.333333 0 0 0
335 16 0.0800915 0.98563 0.331096 0 -1 0
336 16 0.121636 0.992808 0.365131 0 -1 0
337 15 0.111111 0 0.444445 0 0 0
338 16 0.14092 0.00269371 0.461113 0 0 0
339 16 0.09387 0.0283284 0.453045 0 0 0
352 15 0.111111 0.111111 0 0 0 0
355 15 0.111111 0.111111 0.111111 0 0 0
356 16 0.104897 0.0810797 0.126382 0 0 0
357 16 0.12303 0.131191 0.13618 0 0 0
358 15 0.111111 0.111111 0.222222 0 0 0
359 16 0.127102 0.112066 0.252505 0 0 0
360 16 0.0777779 0.110655 0.230121 0 0 0
361 15 0.111111 0.111111 0.333333 0 0 0
362 16 0.102159 0.142597 0.323223 0 0 0
363 16 0.102589 0.0908929 0.307022 0 0 0
364 15 0.111111 0.111111 0.444445 0 0 0
365 16 0.108318 0.143274 0.455909 0 0 0
366 16 0.0976206 0.0918958 0.469395 0 0 0
379 15 0.111111 0.222222 0 0 0 0
380 16 0.0797579 0.216859 0.0127253 0 0 0
381 16 0.129089 0.19467 0.00955787 0 0 0
382 15 0.111111 0.222222 0.111111 0 0 0
383 16 0.142795 0.232908 0.103652 0 0 0
384 16 0.112232 0.188269 0.106682 0 0 0
385 15 0.111111 0.222222 0.222222 0 0 0
386 16 0.131088 0.245335 0.237729 0 0 0
387 16 0.132031 0.205997 0.200478 0 0 0
388 15 0.111111 0.222222 0.333333 0 0 0
389 16 0.111543 0.188968 0.325107 0 0 0
390 16 0.0872615 0.224708 0.357802 0 0 0
391 15 0.111111 0.222222 0.444445 0 0 0
392 16 0.102567 0.195691 0.464366 0 0 0
393 16 0.135721 0.238476 0.461875 0 0 0
406 15 0.111111 0.333333 0 0 0 0
407 16 0.114082 0.364376 0.0141876 0 0 0
408 16 0.0879018 0.31722 0.0193752 0 0 0
409 15 0.111111 0.333333 0.111111 0 0 0
410 16 0.127452 0.323145 0.0827758 0 0 0
411 16 0.112319 0.367551 0.10989 0 0 0
412 15 0.111111 0.333333 0.222222 0 0 0
413 16 0.095345 0.359591 0.206873 0 0 0
414 16 0.144283 0.341891 0.22196 0 0 0
415 15 0.111111 0.333333 0.333333 0 0 0
416 16 0.131006 0.324267 0.306957 0 0 0
417 16 0.114974 0.308028 0.356102 0 0 0
418 15 0.111111 0.333333 0.444445 0 0 0
419 16 0.0887143 0.334186 0.418532 0 0 0
420 16 0.135917 0.355025 0.435075 0 0 0
433 15 0.111111 0.444445 0 0 0 0
436 15 0.111111 0.444445 0.111111 0 0 0
437 16 0.138151 0.450859 0.0910765 0 0 0
438 16 0.0865357 0.434456 0.0894323 0 0 0
439 15 0.111111 0.444445 0.222222 0 0 0
440 16 0.119912 0.415132 0.206825 0 0 0
441 16 0.104115 0.435418 0.254522 0 0 0
442 15 0.111111 0.444445 0.333333 0 0 0
443 16 0.11143 0.478693 0.334026 0 0 0
444 16 0.132812 0.43515 0.358159 0 0 0
445 15 0.111111 0.444445 0.444445 0 0 0
446 16 0.127992 0.421084 0.462963 0 0 0
447 16 0.0780349 0.438185 0.450805 0 0 0
460 15 0.111111 0.555555 0 0 0 0
462 16 0.126948 0.551836 0.0301509 0 0 0
463 15 0.111111 0.555555 0.111111 0 0 0
464 16 0.142386 0.554965 0.125082 0 0 0
465 16 0.0934549 0.531954 0.128575 0 0 0
466 15 0.111111 0.555555 0.222222 0 0 0
467 16 0.0992856 0.550058 0.253902 0 0 0
468 16 0.12092 0.588379 0.222292 0 0 0
469 15 0.111111 0.555555 0.333333 0 0 0
470 16 0.0904903 0.533558 0.3496 0 0 0
471 16 0.140496 0.538408 0.329304 0 0 0
472 15 0.111111 0.555555 0.444445 0 0 0
473 16 0.110027 0.569134 0.475877 0 0 0
474 16 0.0795095 0.54339 0.439248 0 0 0
487 15 0.111111 0.666665 0 0 0 0
490 15 0.111111 0.666665 0.111111 0 0 0
491 16 0.0971743 0.696293 0.101026 0 0 0
492 16 0.13018 0.656637 0.0844748 0 0 0
493 15 0.111111 0.666665 0.222222 0 0 0
494 16 0.0988078 0.692947 0.240435 0 0 0
495 16 0.135569 0.653172 0.242057 0 0 0
496 15 0.111111 0.666665 0.333333 0 0 0
497 16 0.124819 0.636927 0.323268 0 0 0
498 16 0.137693 0.684872 0.344982 0 0 0
499 15 0.111111 0.666665 0.444445 0 0 0
500 16 0.131874 0.65027 0.422677 0 0 0
501 16 0.0812117 0.668777 0.427852 0 0 0
514 15 0.111111 0.777776 0 0 0 0
516 16 0.078536 0.778635 0.0105748 0 0 0
517 15 0.111111 0.777776 0.111111 0 0 0
518 16 0.114994 0.783399 0.0775399 0 0 0
519 16 0.134628 0.79779 0.125948 0 0 0
520 15 0.111111 0.777776 0.222222 0 0 0
521 16 0.126763 0.8072 0.214277 0 0 0
522 16 0.0919191 0.770571 0.194773 0 0 0
523 15 0.111111 0.777776 0.333333 0 0 0
524 16 0.12393 0.791051 0.304468 0 0 0
525 16 0.0912766 0.802604 0.346135 0 0 0
526 15 0.111111 0.777776 0.444445 0 0 0
527 16 0.101445 0.780389 0.411682 0 0 0
528 16 0.131547 0.750292 0.445204 0 0 0
541 15 0.111111 0.88889 0 0 0 0
544 15 0.111111 0.88889 0.111111 0 0 0
545 16 0.120137 0.855851 0.110183 0 0 0
546 16 0.138627 0.90564 0.099452 0 0 0
547 15 0.111111 0.88889 0.222222 0 0 0
548 16 0.0906943 0.916395 0.221728 0 0 0
549 16 0.130024 0.892737 0.250528 0 0 0
550 15 0.111111 0.88889 0.333333 0 0 0
551 16 0.0856534 0.867283 0.32567 0 0 0
552 16 0.0953128 0.917898 0.342414 0 0 0
553 15 0.111111 0.88889 0.444445 0 0 0
554 16 0.0811377 0.903013 0.435737 0 0 0
555 16 0.134429 0.912762 0.4367 0 0 0
568 15 0.222222 0 0 0 0 0
569 16 0.208546 0.00922526 0.0300261 0 0 0
571 15 0.222222 0 0.111111 0 0 0
572 16 0.229272 0.033485 0.109449 0 0 0
573 16 0.230166 0.991134 0.143236 0 -1 0
574 15 0.222222 0 0.222222 0 0 0
575 16 0.238654 0.989796 0.250499 0 -1 0
576 16 0.237666 0.983093 0.19674 0 -1 0
577 15 0.222222 0 0.333333 0 0 0
578 16 0.230741 0.990738 0.365199 0 -1 0
579 16 0.18873 0.00699218 0.335085 0 0 0
580 15 0.222222 0 0.444445 0 0 0
581 16 0.200044 0.0156661 0.465333 0 0 0
582 16 0.24278 0.0250732 0.433382 0 0 0
595 15 0.222222 0.111111 0 0 0 0
596 16 0.246851 0.10659 0.0233816 0 0 0
598 15 0.222222 0.111111 0.111111 0 0 0
599 16 0.211843 0.130218 0.0846363 0 0 0
600 16 0.219801 0.0788352 0.0998815 0 0 0
601 15 0.222222 0.111111 0.222222 0 0 0
602 16 0.190357 0.123093 0.226067 0 0 0
603 16 0.223389 0.0832633 0.242143 0 0 0
604 15 0.222222 0.111111 0.333333 0 0 0
605 16 0.248866 0.0914384 0.342098 0 0 0
606 16 0.235547 0.142451 0.329596 0 0 0
607 15 0.222222 0.111111 0.444445 0 0 0
608 16 0.225335 0.0774469 0.438901 0 0 0
609 16 0.194808 0.120341 0.426088 0 0 0
622 15 0.222222 0.222222 0 0 0 0
623 16 0.199965 0.223788 0.0259971 0 0 0
624 16 0.24663 0.244816 0.00821684 0 0 0
625 15 0.222222 0.222222 0.111111 0 0 0
626 16 0.249506 0.203106 0.119103 0 0 0
627 16 0.222147 0.247276 0.134477 0 0 0
628 15 0.222222 0.222222 0.222222 0 0 0
629 16 0.240265 0.216733 0.193621 0 0 0
630 16 0.192073 0.207026 0.216407 0 0 0
631 15 0.222222 0.222222 0.333333 0 0 0
632 16 0.193055 0.22886 0.350035 0 0 0
633 16 0.233248 0.252894 0.32278 0 0 0
634 15 0.222222 0.222222 0.444445 0 0 0
635 16 0.192973 0.215151 0.428067 0 0 0
636 16 0.222548 0.256378 0.447083 0 0 0
646 15 0.222222 0.333333 0 0 0 0
647 16 0.230007 0.31385 0.0270833 0 0 0
649 15 0.222222 0.333333 0.111111 0 0 0
650 16 0.223004 0.336012 0.0769655 0 0 0
651 16 0.249954 0.350432 0.121706 0 0 0
652 15 0.222222 0.333333 0.222222 0 0 0
653 16 0.2399 0.362039 0.228313 0 0 0
654 16 0.205204 0.327382 0.251354 0 0 0
655 15 0.222222 0.333333 0.333333 0 0 0
656 16 0.217082 0.35156 0.361882 0 0 0
657 16 0.190736 0.325255 0.322514 0 0 0
658 15 0.222222 0.333333 0.444445 0 0 0
659 16 0.242114 0.352629 0.464588 0 0 0
660 16 0.234822 0.301647 0.447745 0 0 0
667 15 0.222222 0.444445 0 0 0 0
670 15 0.222222 0.444445 0.111111 0 0 0
671 16 0.255098 0.434831 0.110413 0 0 0
672 16 0.222996 0.478146 0.105004 0 0 0
673 15 0.222222 0.444445 0.222222 0 0 0
674 16 0.210097 0.462616 0.195831 0 0 0
675 16 0.201699 0.452595 0.248415 0 0 0
676 15 0.222222 0.444445 0.333333 0 0 0
677 16 0.236262 0.451818 0.363703 0 0 0
678 16 0.192096 0.430075 0.341059 0 0 0
679 15 0.222222 0.444445 0.444445 0 0 0
680 16 0.229531 0.471739 0.463815 0 0 0
681 16 0.245972 0.421266 0.452952 0 0 0
691 15 0.222222 0.555555 0 0 0 0
694 15 0.222222 0.555555 0.111111 0 0 0
695 16 0.199466 0.579503 0.120188 0 0 0
696 16 0.21613 0.52941 0.132396 0 0 0
697 15 0.222222 0.555555 0.222222 0 0 0
698 16 0.227731 0.561271 0.188895 0 0 0
699 16 0.251511 0.5647 0.237462 0 0 0
712 15 0.222222 0.666665 0 0 0 0
714 16 0.234619 0.667324 0.031931 0 0 0
715 15 0.222222 0.666665 0.111111 0 0 0
716 16 0.234625 0.696952 0.100974 0 0 0
717 16 0.192154 0.663849 0.0949345 0 0 0
718 15 0.222222 0.666665 0.222222 0 0 0
719 16 0.231692 0.696916 0.235224 0 0 0
720 16 0.193485 0.658688 0.239081 0 0 0
721 15 0.222222 0.666665 0.444445 0 0 0
722 16 0.203674 0.695009 0.449588 0 0 0
723 16 0.209859 0.653473 0.415347 0 0 0
736 15 0.222222 0.777776 0 0 0 0
737 16 0.240317 0.795754 0.022871 0 0 0
739 15 0.222222 0.777776 0.111111 0 0 0
740 16 0.215163 0.765728 0.0798273 0 0 0
741 16 0.192381 0.790195 0.122468 0 0 0
742 15 0.222222 0.777776 0.222222 0 0 0
743 16 0.202174 0.778105 0.194443 0 0 0
744 16 0.24121 0.806158 0.219445 0 0 0
745 15 0.222222 0.777776 0.333333 0 0 0
746 16 0.206141 0.762597 0.359498 0 0 0
747 16 0.230921 0.808656 0.345351 0 0 0
748 15 0.222222 0.777776 0.444445 0 0 0
749 16 0.244569 0.752296 0.449452 0 0 0
750 16 0.236751 0.804995 0.459341 0 0 0
763 15 0.222222 0.88889 0 0 0 0
766 15 0.222222 0.88889 0.111111 0 0 0
767 16 0.238753 0.859036 0.114161 0 0 0
768 16 0.189045 0.880575 0.113071 0 0 0
769 15 0.222222 0.88889 0.222222 0 0 0
770 16 0.215734 0.91971 0.235702 0 0 0
771 16 0.256412 0.887068 0.221009 0 0 0
772 15 0.222222 0.88889 0.333333 0 0 0
773 16 0.235871 0.870708 0.358961 0 0 0
774 16 0.19322 0.872379 0.325584 0 0 0
775 15 0.222222 0.88889 0.444445 0 0 0
776 16 0.19278 0.894913 0.427995 0 0 0
777 16 0.215431 0.896288 0.477197 0 0 0
790 15 0.333333 0 0 0 0 0
791 16 0.343103 0.0139598 0.0297217 0 0 0
792 16 0.308315 0.978215 0.00855532 0 -1 0
793 15 0.333333 0 0.111111 0 0 0
794 16 0.308813 0.976879 0.117266 0 -1 0
795 16 0.340156 0.996601 0.0777106 0 -1 0
796 15 0.333333 0 0.222222 0 0 0
797 16 0.358328 0.985295 0.20398 0 -1 0
798 16 0.306154 0.979688 0.217487 0 -1 0
799 15 0.333333 0 0.333333 0 0 0
800 16 0.361073 0.992523 0.351998 0 -1 0
801 16 0.322635 0.0301658 0.345551 0 0 0
802 15 0.333333 0 0.444445 0 0 0
803 16 0.358736 0.981172 0.431259 0 -1 0
804 16 0.320702 0.017308 0.417712 0 0 0
817 15 0.333333 0.111111 0 0 0 0
819 16 0.315284 0.13905 0.00820589 0 0 0
820 15 0.333333 0.111111 0.111111 0 0 0
821 16 0.327682 0.0908017 0.0841058 0 0 0
822 16 0.35133 0.0916875 0.132849 0 0 0
823 15 0.333333 0.111111 0.222222 0 0 0
824 16 0.356726 0.0976854 0.201097 0 0 0
825 16 0.309505 0.0866867 0.225289 0 0 0
826 15 0.333333 0.111111 0.333333 0 0 0
827 16 0.332089 0.135932 0.356915 0 0 0
828 16 0.364706 0.0977355 0.336589 0 0 0
829 15 0.333333 0.111111 0.444445 0 0 0
830 16 0.350352 0.0813907 0.443579 0 0 0
831 16 0.342026 0.125114 0.474477 0 0 0
844 15 0.333333 0.222222 0 0 0 0
845 16 0.302048 0.20868 0.0033937 0 0 0
847 15 0.333333 0.222222 0.111111 0 0 0
848 16 0.351709 0.23182 0.0838367 0 0 0
849 16 0.319761 0.251344 0.123004 0 0 0
850 15 0.333333 0.222222 0.222222 0 0 0
851 16 0.343536 0.247306 0.243207 0 0 0
852 16 0.339826 0.193375 0.239525 0 0 0
853 15 0.333333 0.222222 0.333333 0 0 0
854 16 0.358464 0.244673 0.339514 0 0 0
855 16 0.332146 0.219847 0.299177 0 0 0
856 15 0.333333 0.222222 0.444445 0 0 0
857 16 0.329358 0.239802 0.415311 0 0 0
858 16 0.366631 0.214198 0.445161 0 0 0
862 15 0.333333 0.333333 0 0 0 0
863 16 0.359011 0.354137 0.00902651 0 0 0
865 15 0.333333 0.333333 0.111111 0 0 0
866 16 0.312317 0.325493 0.137006 0 0 0
867 16 0.344555 0.36487 0.118404 0 0 0
868 15 0.333333 0.333333 0.222222 0 0 0
869 16 0.307333 0.341322 0.201393 0 0 0
870 16 0.361427 0.338983 0.203448 0 0 0
871 15 0.333333 0.333333 0.333333 0 0 0
872 16 0.34019 0.366703 0.336976 0 0 0
873 16 0.322685 0.330241 0.300918 0 0 0
874 15 0.333333 0.333333 0.444445 0 0 0
875 16 0.312162 0.341477 0.470118 0 0 0
876 16 0.35399 0.360493 0.441403 0 0 0
877 15 0.333333 0.444445 0 0 0 0
878 16 0.345492 0.4418 0.0319195 0 0 0
880 15 0.333333 0.444445 0.111111 0 0 0
881 16 0.3622 0.441503 0.129323 0 0 0
882 16 0.308286 0.443178 0.134451 0 0 0
883 15 0.333333 0.444445 0.222222 0 0 0
884 16 0.348962 0.469524 0.239557 0 0 0
885 16 0.306747 0.43564 0.241954 0 0 0
886 15 0.333333 0.555555 0 0 0 0
889 15 0.333333 0.555555 0.111111 0 0 0
890 16 0.316541 0.580137 0.0941553 0 0 0
891 16 0.366123 0.565455 0.110345 0 0 0
895 15 0.333333 0.666665 0 0 0 0
896 16 0.361037 0.684253 0.00984366 0 0 0
897 16 0.308416 0.67751 0.0208631 0 0 0
898 15 0.333333 0.666665 0.111111 0 0 0
899 16 0.345101 0.69789 0.118873 0 0 0
900 16 0.346003 0.660216 0.0799412 0 0 0
913 15 0.333333 0.777776 0 0 0 0
915 16 0.309885 0.769175 0.0234494 0 0 0
916 15 0.333333 0.777776 0.111111 0 0 0
917 16 0.325153 0.800453 0.0867687 0 0 0
918 16 0.323577 0.747536 0.0983056 0 0 0
919 15 0.333333 0.777776 0.222222 0 0 0
920 16 0.306243 0.758062 0.229367 0 0 0
921 16 0.319828 0.807125 0.210813 0 0 0
922 15 0.333333 0.777776 0.444445 0 0 0
923 16 0.355797 0.803406 0.440944 0 0 0
924 16 0.34331 0.754415 0.42146 0 0 0
937 15 0.333333 0.88889 0 0 0 0
939 16 0.319999 0.916782 0.0147611 0 0 0
940 15 0.333333 0.88889 0.111111 0 0 0
941 16 0.318549 0.866305 0.132207 0 0 0
942 16 0.365543 0.877709 0.107769 0 0 0
943 15 0.333333 0.88889 0.222222 0 0 0
944 16 0.366194 0.894022 0.214005 0 0 0
945 16 0.327104 0.911463 0.247229 0 0 0
946 15 0.333333 0.88889 0.333333 0 0 0
947 16 0.337768 0.900941 0.301572 0 0 0
948 16 0.305293 0.869315 0.331255 0 0 0
949 15 0.333333 0.88889 0.444445 0 0 0
950 16 0.304799 0.905282 0.453972 0 0 0
951 16 0.354832 0.91384 0.435014 0 0 0
964 15 0.444445 0 0 0 0 0
965 16 0.449803 0.973555 0.0211106 0 -1 0
966 16 0.413858 0.0123341 0.00927684 0 0 0
967 15 0.444445 0 0.111111 0 0 0
968 16 0.414588 0.983745 0.115357 0 -1 0
969 16 0.45316 0.993602 0.0786026 0 -1 0
970 15 0.444445 0 0.222222 0 0 0
971 16 0.473575 0.998984 0.240226 0 -1 0
972 16 0.452369 0.0178305 0.194062 0 0 0
973 15 0.444445 0 0.333333 0 0 0
974 16 0.421624 0.0251517 0.328815 0 0 0
975 16 0.474871 0.0151036 0.328879 0 0 0
976 15 0.444445 0 0.444445 0 0 0
977 16 0.453618 0.0248786 0.466138 0 0 0
978 16 0.451668 0.0125738 0.413407 0 0 0
991 15 0.444445 0.111111 0 0 0 0
994 15 0.444445 0.111111 0.111111 0 0 0
995 16 0.437047 0.138122 0.130843 0 0 0
996 16 0.427401 0.0850776 0.125444 0 0 0
997 15 0.444445 0.111111 0.222222 0 0 0
998 16 0.46962 0.0916449 0.209533 0 0 0
999 16 0.452559 0.115187 0.255256 0 0 0
1000 15 0.444445 0.111111 0.333333 0 0 0
1001 16 0.452065 0.0811029 0.348 0 0 0
1002 16 0.417483 0.122707 0.351006 0 0 0
1003 15 0.444445 0.111111 0.444445 0 0 0
1004 16 0.438958 0.0872469 0.468403 0 0 0
1005 16 0.42661 0.100264 0.417279 0 0 0
1018 15 0.444445 0.222222 0 0 0 0
1019 16 0.444871 0.235301 0.031662 0 0 0
1021 15 0.444445 0.222222 0.111111 0 0 0
1022 16 0.429155 0.192667 0.11926 0 0 0
1023 16 0.458403 0.233051 0.140464 0 0 0
1024 15 0.444445 0.222222 0.222222 0 0 0
1025 16 0.445218 0.253765 0.208874 0 0 0
1026 16 0.477405 0.213688 0.226014 0 0 0
1027 15 0.444445 0.222222 0.333333 0 0 0
1028 16 0.473246 0.204091 0.337248 0 0 0
1029 16 0.434205 0.215286 0.301384 0 0 0
1030 15 0.444445 0.222222 0.444445 0 0 0
1031 16 0.432115 0.238344 0.416843 0 0 0
1032 16 0.439681 0.188952 0.437798 0 0 0
1036 15 0.444445 0.333333 0 0 0 0
1037 16 0.439513 0.343399 0.0323739 0 0 0
1039 15 0.444445 0.333333 0.111111 0 0 0
1040 16 0.423758 0.341783 0.137079 0 0 0
1041 16 0.433317 0.352206 0.084773 0 0 0
1042 15 0.444445 0.333333 0.222222 0 0 0
1043 16 0.425225 0.356732 0.206197 0 0 0
1044 16 0.444663 0.343371 0.254977 0 0 0
1045 15 0.444445 0.333333 0.333333 0 0 0
1046 16 0.411871 0.340505 0.341157 0 0 0
1047 16 0.45709 0.318819 0.361674 0 0 0
1048 15 0.444445 0.444445 0 0 0 0
1050 16 0.426252 0.425894 0.0223321 0 0 0
1051 15 0.444445 0.666665 0 0 0 0
1052 16 0.456349 0.693627 0.0174652 0 0 0
1053 16 0.410536 0.667621 0.00478976 0 0 0
1054 15 0.444445 0.777776 0 0 0 0
1056 16 0.449073 0.807726 0.0159791 0 0 0
1057 15 0.444445 0.777776 0.111111 0 0 0
1058 16 0.435318 0.75357 0.0886527 0 0 0
1059 16 0.477885 0.782593 0.105431 0 0 0
1060 15 0.444445 0.777776 0.222222 0 0 0
1061 16 0.462348 0.757776 0.200935 0 0 0
1062 16 0.439545 0.758452 0.250084 0 0 0
1063 15 0.444445 0.777776 0.333333 0 0 0
1064 16 0.463779 0.751924 0.344797 0 0 0
1065 16 0.454724 0.80492 0.351536 0 0 0
1066 15 0.444445 0.777776 0.444445 0 0 0
1067 16 0.434133 0.78823 0.475397 0 0 0
1068 16 0.476714 0.76731 0.449223 0 0 0
1081 15 0.444445 0.88889 0 0 0 0
1082 16 0.471875 0.906746 0.010118 0 0 0
1083 16 0.452752 0.856209 0.00606436 0 0 0
1084 15 0.444445 0.88889 0.111111 0 0 0
1085 16 0.472484 0.871502 0.120338 0 0 0
1086 16 0.419817 0.877061 0.131782 0 0 0
1087 15 0.444445 0.88889 0.222222 0 0 0
1088 16 0.428528 0.915944 0.208498 0 0 0
1089 16 0.47763 0.894151 0.215544 0 0 0
1090 15 0.444445 0.88889 0.333333 0 0 0
1091 16 0.46058 0.871799 0.35826 0 0 0
1092 16 0.454917 0.921306 0.336971 0 0 0
1093 15 0.444445 0.88889 0.444445 0 0 0
1094 16 0.451961 0.872945 0.415067 0 0 0
1095 16 0.422677 0.867759 0.460361 0 0 0
1108 15 0.555555 0 0 0 0 0
1110 16 0.528855 0.0212475 0.00305985 0 0 0
1111 15 0.555555 0 0.111111 0 0 0
1112 16 0.553261 0.000541468 0.145289 0 0 0
1113 16 0.58737 0.988965 0.104812 0 -1 0
1114 15 0.555555 0 0.222222 0 0 0
1115 16 0.532724 0.000284966 0.247763 0 0 0
1116 16 0.582291 0.982653 0.234793 0 -1 0
1117 15 0.555555 0 0.333333 0 0 0
1118 16 0.579331 0.00854766 0.310197 0 0 0
1119 16 0.532946 0.981119 0.31584 0 -1 0
1120 15 0.555555 0 0.444445 0 0 0
1121 16 0.573623 0.0253199 0.430085 0 0 0
1122 16 0.575226 0.972205 0.44068 0 -1 0
1135 15 0.555555 0.111111 0 0 0 0
1136 16 0.569786 0.140695 0.00979993 0 0 0
1138 15 0.555555 0.111111 0.111111 0 0 0
1139 16 0.542241 0.102794 0.141562 0 0 0
1140 16 0.588003 0.100228 0.112663 0 0 0
1141 15 0.555555 0.111111 0.222222 0 0 0
1142 16 0.561808 0.142509 0.210024 0 0 0
1143 16 0.568068 0.0899695 0.198344 0 0 0
1144 15 0.555555 0.111111 0.333333 0 0 0
1145 16 0.572252 0.14008 0.325871 0 0 0
1146 16 0.580248 0.0876187 0.336818 0 0 0
1147 15 0.555555 0.111111 0.444445 0 0 0
1148 16 0.534012 0.0845754 0.446793 0 0 0
1149 16 0.548139 0.130625 0.47161 0 0 0
1162 15 0.555555 0.222222 0 0 0 0
1165 15 0.555555 0.222222 0.111111 0 0 0
1166 16 0.537388 0.195885 0.123361 0 0 0
1167 16 0.58523 0.220865 0.128178 0 0 0
1168 15 0.555555 0.222222 0.222222 0 0 0
1169 16 0.582123 0.200595 0.222557 0 0 0
1170 16 0.5367 0.213087 0.24933 0 0 0
1171 15 0.555555 0.222222 0.333333 0 0 0
1172 16 0.58572 0.234969 0.32327 0 0 0
1173 16 0.534488 0.249237 0.333643 0 0 0
1174 15 0.555555 0.222222 0.444445 0 0 0
1175 16 0.563597 0.222423 0.477745 0 0 0
1176 16 0.526174 0.20468 0.442809 0 0 0
1186 15 0.555555 0.333333 0 0 0 0
1189 15 0.555555 0.333333 0.111111 0 0 0
1190 16 0.548637 0.312405 0.0848843 0 0 0
1191 16 0.526947 0.333235 0.129957 0 0 0
1192 15 0.555555 0.333333 0.222222 0 0 0
1193 16 0.575963 0.344339 0.247442 0 0 0
1194 16 0.523801 0.338721 0.233899 0 0 0
1195 15 0.555555 0.333333 0.333333 0 0 0
1196 16 0.580061 0.352932 0.319584 0 0 0
1197 16 0.572585 0.308725 0.350011 0 0 0
1201 15 0.555555 0.444445 0 0 0 0
1203 16 0.540856 0.44267 0.0308937 0 0 0
1204 15 0.555555 0.666665 0 0 0 0
1205 16 0.547101 0.679794 0.0304943 0 0 0
1207 15 0.555555 0.777776 0 0 0 0
1209 16 0.555319 0.749096 0.0187385 0 0 0
1210 15 0.555555 0.777776 0.111111 0 0 0
1211 16 0.540251 0.75794 0.134478 0 0 0
1212 16 0.533368 0.803309 0.105661 0 0 0
1213 15 0.555555 0.777776 0.444445 0 0 0
1214 16 0.521589 0.777719 0.448922 0 0 0
1215 16 0.56033 0.761423 0.414724 0 0 0
1222 15 0.555555 0.88889 0 0 0 0
1225 15 0.555555 0.88889 0.111111 0 0 0
1226 16 0.53641 0.878908 0.0845113 0 0 0
1227 16 0.570487 0.860124 0.122218 0 0 0
1228 15 0.555555 0.88889 0.222222 0 0 0
1229 16 0.528579 0.909785 0.225272 0 0 0
1230 16 0.573966 0.902308 0.196636 0 0 0
1231 15 0.555555 0.88889 0.333333 0 0 0
1232 16 0.563222 0.92083 0.323597 0 0 0
1233 16 0.583519 0.870633 0.325683 0 0 0
1234 15 0.555555 0.88889 0.444445 0 0 0
1235 16 0.545899 0.88928 0.477312 0 0 0
1236 16 0.58786 0.877508 0.445121 0 0 0
1249 15 0.666665 0 0 0 0 0
1250 16 0.656894 0.972375 0.0177501 0 -1 0
1251 16 0.698806 0.00589993 0.010298 0 0 0
1252 15 0.666665 0 0.111111 0 0 0
1253 16 0.666905 0.965794 0.113005 0 -1 0
1254 16 0.699139 0.00844766 0.104199 0 0 0
1255 15 0.666665 0 0.222222 0 0 0
1256 16 0.651197 0.971624 0.233587 0 -1 0
1257 16 0.692797 0.988532 0.203265 0 -1 0
1258 15 0.666665 0 0.333333 0 0 0
1259 16 0.650366 0.998866 0.363446 0 -1 0
1260 16 0.642818 0.0103926 0.311041 0 0 0
1261 15 0.666665 0 0.444445 0 0 0
1262 16 0.658691 0.00479356 0.477416 0 0 0
1263 16 0.658344 0.967349 0.438253 0 -1 0
1276 15 0.666665 0.111111 0 0 0 0
1277 16 0.641912 0.127295 0.0172919 0 0 0
1279 15 0.666665 0.111111 0.111111 0 0 0
1280 16 0.648713 0.0982874 0.13732 0 0 0
1281 16 0.659156 0.0906116 0.0847086 0 0 0
1282 15 0.666665 0.111111 0.222222 0 0 0
1283 16 0.694028 0.12684 0.235551 0 0 0
1284 16 0.639915 0.125561 0.238009 0 0 0
1285 15 0.666665 0.111111 0.333333 0 0 0
1286 16 0.640241 0.106278 0.312072 0 0 0
1287 16 0.652191 0.118839 0.363406 0 0 0
1288 15 0.666665 0.111111 0.444445 0 0 0
1289 16 0.642614 0.113835 0.420203 0 0 0
1290 16 0.674064 0.143481 0.452881 0 0 0
1303 15 0.666665 0.222222 0 0 0 0
1304 16 0.640434 0.202404 0.00963303 0 0 0
1305 16 0.680552 0.232985 0.0294112 0 0 0
1306 15 0.666665 0.222222 0.111111 0 0 0
1307 16 0.664096 0.225649 0.145102 0 0 0
1308 16 0.675867 0.253302 0.100016 0 0 0
1309 15 0.666665 0.222222 0.222222 0 0 0
1310 16 0.661687 0.241925 0.249804 0 0 0
1311 16 0.637506 0.224828 0.204429 0 0 0
1312 15 0.666665 0.222222 0.333333 0 0 0
1313 16 0.693648 0.242626 0.338746 0 0 0
1314 16 0.658816 0.209953 0.364344 0 0 0
1315 15 0.666665 0.222222 0.444445 0 0 0
1316 16 0.651948 0.240692 0.469262 0 0 0
1317 16 0.669167 0.190669 0.457552 0 0 0
1330 15 0.666665 0.333333 0 0 0 0
1331 16 0.683638 0.33013 0.0295871 0 0 0
1333 15 0.666665 0.333333 0.111111 0 0 0
1334 16 0.63907 0.335389 0.131309 0 0 0
1335 16 0.661368 0.305291 0.0921567 0 0 0
1336 15 0.666665 0.333333 0.222222 0 0 0
1337 16 0.65799 0.353337 0.248647 0 0 0
1338 16 0.687396 0.352822 0.203139 0 0 0
1339 15 0.666665 0.333333 0.333333 0 0 0
1340 16 0.690431 0.310563 0.32382 0 0 0
1341 16 0.670685 0.359523 0.311616 0 0 0
1342 15 0.666665 0.333333 0.444445 0 0 0
1343 16 0.638151 0.333889 0.425465 0 0 0
1344 16 0.673086 0.366288 0.45127 0 0 0
1357 15 0.666665 0.444445 0 0 0 0
1360 15 0.666665 0.444445 0.111111 0 0 0
1361 16 0.645341 0.459273 0.133449 0 0 0
1362 16 0.694472 0.464459 0.111198 0 0 0
1363 15 0.666665 0.444445 0.222222 0 0 0
1364 16 0.649618 0.428493 0.247295 0 0 0
1365 16 0.648544 0.472899 0.216266 0 0 0
1366 15 0.666665 0.555555 0 0 0 0
1369 15 0.666665 0.666665 0 0 0 0
1371 16 0.672854 0.634113 0.00870668 0 0 0
1372 15 0.666665 0.666665 0.444445 0 0 0
1373 16 0.64242 0.665073 0.420293 0 0 0
1374 16 0.693548 0.680921 0.4287 0 0 0
1378 15 0.666665 0.777776 0 0 0 0
1381 15 0.666665 0.777776 0.111111 0 0 0
1382 16 0.668967 0.774039 0.0771341 0 0 0
1383 16 0.634117 0.786981 0.116557 0 0 0
1384 15 0.666665 0.777776 0.222222 0 0 0
1385 16 0.648247 0.799097 0.241713 0 0 0
1386 16 0.676164 0.752693 0.243537 0 0 0
1387 15 0.666665 0.777776 0.333333 0 0 0
1388 16 0.698226 0.790865 0.330809 0 0 0
1389 16 0.671637 0.744189 0.337906 0 0 0
1390 15 0.666665 0.777776 0.444445 0 0 0
1391 16 0.672127 0.807726 0.460161 0 0 0
1392 16 0.665799 0.754787 0.469828 0 0 0
1396 15 0.666665 0.88889 0 0 0 0
1397 16 0.69425 0.903081 0.0145399 0 0 0
1399 15 0.666665 0.88889 0.111111 0 0 0
1400 16 0.685191 0.910719 0.0922949 0 0 0
1401 16 0.643022 0.908521 0.12625 0 0 0
1402 15 0.666665 0.88889 0.222222 0 0 0
1403 16 0.698047 0.899026 0.231509 0 0 0
1404 16 0.653666 0.915654 0.205241 0 0 0
1405 15 0.666665 0.88889 0.333333 0 0 0
1406 16 0.689092 0.864072 0.325916 0 0 0
1407 16 0.669124 0.910805 0.307116 0 0 0
1408 15 0.666665 0.88889 0.444445 0 0 0
1409 16 0.662059 0.876932 0.412673 0 0 0
1410 16 0.664328 0.922916 0.441238 0 0 0
1423 15 0.777776 0 0 0 0 0
1426 15 0.777776 0 0.111111 0 0 0
1427 16 0.790772 0.0174147 0.137599 0 0 0
1428 16 0.743835 0.00288681 0.114754 0 0 0
1429 15 0.777776 0 0.222222 0 0 0
1430 16 0.78196 0.98195 0.251039 0 -1 0
1431 16 0.778599 0.976586 0.197225 0 -1 0
1432 15 0.777776 0 0.333333 0 0 0
1433 16 0.78439 0.0325496 0.34173 0 0 0