ITEM: TIMESTEP
2000
ITEM: NUMBER OF ATOMS
1890
ITEM: BOX BOUNDS
0.482127 27.3191
0.477796 27.3148
0.47406 27.3111
ITEM: ATOMS
1 1 0.404224 0.524373 0.362448 0 0 0
2 2 0.364265 0.561026 0.358768 0 0 0
3 3 0.394989 0.481736 0.350359 0 0 0
4 4 0.372733 0.590253 0.330707 0 0 0
5 4 0.329749 0.542462 0.345452 0 0 0
6 4 0.35904 0.580241 0.395057 0 0 0
7 5 0.447693 0.541696 0.379588 0 0 0
8 6 0.492728 0.512197 0.384758 0 0 0
9 1 0.506612 0.503729 0.440818 0 0 0
1448 16 0.698061 0.913569 0.0293788 0 -1 1
11 7 0.535292 0.540997 0.360057 0 0 0
12 8 0.526605 0.557514 0.306343 0 0 0
13 8 0.530219 0.520826 0.269346 0 0 0
14 8 0.524061 0.608059 0.288945 0 0 0
15 8 0.528709 0.534829 0.218346 0 0 0
16 8 0.518024 0.620891 0.238743 0 0 0
17 8 0.524174 0.583334 0.201781 0 0 0
18 9 0.529588 0.595163 0.151834 0 0 0
19 10 0.453588 0.578212 0.382997 0 0 0
20 4 0.486599 0.476473 0.367285 0 0 0
21 4 0.542525 0.573607 0.384503 0 0 0
22 4 0.570233 0.518925 0.362358 0 0 0
23 11 0.534392 0.482277 0.280098 0 0 0
24 11 0.523442 0.638145 0.315656 0 0 0
25 11 0.532198 0.507743 0.188795 0 0 0
26 11 0.513802 0.659451 0.22805 0 0 0
27 10 0.528408 0.563385 0.135461 0 0 0
28 5 0.512688 0.456356 0.456463 0 0 0
1548 16 0.856445 0.561151 0.454146 0 0 0
1878 16 0.931043 0.899707 0.44592 0 0 0
1201 15 0.520714 0.440445 0.020715 0 0 0
32 10 0.52076 0.429404 0.43221 0 0 0
856 15 0.314664 0.497769 0.463777 0 0 0
203 16 0.0525621 0.382908 0.471598 0 0 0
1036 15 0.343312 0.409176 0.032471 0 0 0
1086 16 0.313565 0.906033 0.0635659 0 0 0
565 15 0.174065 0.886951 0.0190267 0 0 1
896 16 0.462353 0.58675 0.0750095 0 0 0
88 15 0.922243 0.959278 0.11915 -1 -1 0
89 16 0.90063 0.941282 0.097222 -1 -1 0
90 16 0.925634 0.991385 0.104001 -1 -1 0
91 15 0.0423229 0.988835 0.344078 0 -1 0
92 16 0.0185669 0.00951064 0.327345 0 0 0
93 16 0.0247507 0.976142 0.372397 0 -1 0
94 15 0.966466 0.0526136 0.315098 -1 0 0
95 16 0.931467 0.0460161 0.313273 -1 0 0
96 16 0.977856 0.0498389 0.281417 -1 0 0
1533 16 0.753775 0.462651 0.130735 0 0 0
112 15 0.973812 0.145955 0.0557034 -1 0 0
113 16 0.941106 0.157263 0.0470824 -1 0 0
114 16 0.995418 0.162895 0.0329422 -1 0 0
115 15 0.021814 0.167603 0.150112 0 0 0
116 16 0.0178871 0.19904 0.133737 0 0 0
117 16 0.00846755 0.143822 0.12713 0 0 0
118 15 0.0687539 0.175853 0.244024 0 0 0
119 16 0.0776718 0.144314 0.25808 0 0 0
120 16 0.0558448 0.167925 0.211739 0 0 0
121 15 -0.000297658 0.137027 0.371738 0 0 0
122 16 0.996206 0.155998 0.341743 -1 0 0
123 16 0.994424 0.103241 0.361614 -1 0 0
1877 16 0.902986 0.935463 0.412518 0 0 0
139 15 0.94843 0.293127 0.152602 -1 0 0
140 16 0.971182 0.285677 0.179036 -1 0 0
141 16 0.918781 0.275175 0.161 -1 0 0
142 15 0.0383264 0.288045 0.210156 0 0 0
143 16 0.0324608 0.261756 0.23353 0 0 0
144 16 0.0721489 0.283443 0.199827 0 0 0
145 15 0.902622 0.31423 0.420143 -1 0 0
146 16 0.911795 0.322853 0.453509 -1 0 0
147 16 0.891249 0.280507 0.422429 -1 0 0
876 16 0.430711 0.615491 0.477865 0 0 0
1425 16 0.569541 0.952502 0.0397511 0 -1 0
150 16 0.908258 0.195115 0.372696 -1 0 0
1876 15 0.935068 0.920653 0.417339 0 0 0
166 15 0.0145539 0.373698 0.129373 0 0 0
167 16 0.0369361 0.380832 0.156205 0 0 0
168 16 0.996932 0.34455 0.139939 -1 0 0
169 15 0.0394618 0.393416 0.237241 0 0 0
170 16 0.00657667 0.402409 0.247708 0 0 0
171 16 0.0387221 0.357829 0.235033 0 0 0
172 15 0.910915 0.416397 0.421264 -1 0 0
222 16 0.909165 0.387307 0.0535729 -1 0 0
85 15 0.926789 0.0536926 0.0835198 -1 0 0
489 16 0.150922 0.568453 0.0150386 0 0 0
1665 16 0.82042 0.974709 0.400083 0 -1 0
1304 16 0.726907 0.361843 0.0938239 0 0 0
1875 16 0.944218 0.828912 0.354269 0 0 0
659 16 0.216358 0.208963 0.391481 0 0 0
1051 15 0.654363 0.645223 0.0585396 0 0 0
339 16 0.107345 0.994087 0.343687 0 -1 0
1449 16 0.682853 0.872932 0.0654171 0 -1 1
196 15 0.969113 0.452345 0.0763445 -1 0 0
197 16 0.991178 0.480274 0.0741139 -1 0 0
198 16 0.986481 0.428839 0.0967809 -1 0 0
199 15 0.0145182 0.41046 0.42207 0 0 0
200 16 0.98091 0.421087 0.416648 -1 0 0
201 16 0.03439 0.438607 0.412867 0 0 0
1785 16 0.784849 0.648926 0.0281087 0 0 0
1451 16 0.74159 0.123795 0.109414 0 0 0
1595 16 0.773612 0.739074 0.0362393 0 0 0
1874 16 0.963501 0.881076 0.363676 0 0 0
220 15 0.882772 0.374356 0.0737593 -1 0 0
221 16 0.853092 0.388166 0.0596094 -1 0 0
1757 16 0.802796 0.460881 0.0283773 0 0 0
1177 15 0.563288 0.166739 0.498145 0 0 0
224 16 0.868651 0.453234 0.0167416 -1 0 0
225 16 0.923461 0.463998 0.0245811 -1 0 0
226 15 0.94126 0.682069 0.298882 -1 0 0
227 16 0.94908 0.648429 0.30777 -1 0 0
228 16 0.970865 0.700439 0.306491 -1 0 0
353 16 0.0481878 0.0660666 0.00642979 0 0 0
173 16 0.915075 0.381369 0.416014 -1 0 0
1862 16 0.959929 0.899942 0.0111938 0 0 1
676 15 0.28558 0.60541 0.458677 0 0 0
148 15 0.910365 0.212903 0.403533 -1 0 0
247 15 0.00438008 0.667491 0.137938 0 0 0
248 16 1.00455 0.702316 0.145621 -1 0 0
249 16 0.0110257 0.651433 0.16908 0 0 0
250 15 0.990581 0.554157 0.156461 -1 0 0
251 16 0.0112056 0.537813 0.132392 0 0 0
252 16 0.966206 0.571499 0.137046 -1 0 0
253 15 0.0153137 0.713109 0.425318 0 0 0
254 16 0.0411975 0.69584 0.407893 0 0 0
255 16 0.0318111 0.740673 0.440806 0 0 0
1009 15 0.433295 0.123101 0.465504 0 0 0
879 16 0.578621 0.511641 0.0981364 0 0 0
1478 16 0.804074 0.170504 0.0374834 0 0 0
1873 15 0.974268 0.84808 0.35548 0 0 0
581 16 0.247645 0.0461695 0.306886 0 0 0
1206 16 0.651348 0.532569 0.176477 0 0 0
274 15 0.106165 0.719204 0.0779332 0 0 0
275 16 0.0711835 0.725918 0.0761817 0 0 0
276 16 0.12025 0.74878 0.0920304 0 0 0
277 15 0.187011 0.671273 0.280625 0 0 0
278 16 0.176328 0.681438 0.248154 0 0 0
279 16 0.177882 0.698375 0.301932 0 0 0
280 15 0.103436 0.674381 0.377381 0 0 0
281 16 0.127253 0.700825 0.379686 0 0 0
282 16 0.121463 0.645229 0.387232 0 0 0
283 15 0.961793 0.0229331 0.429622 -1 1 0
284 16 0.951462 0.0358102 0.398011 -1 1 0
285 16 0.952083 0.988625 0.428906 -1 0 0
1424 16 0.612011 0.928028 0.0676567 0 -1 0
898 15 0.541451 0.796012 0.104721 0 0 0
301 15 0.0302773 0.888516 0.109827 0 0 0
302 16 0.0025164 0.889681 0.0874715 0 0 0
303 16 0.0225603 0.912643 0.13493 0 0 0
304 15 0.00766421 0.931968 0.201723 0 0 0
305 16 0.0431609 0.933291 0.204901 0 0 0
306 16 0.997493 0.907228 0.225311 -1 0 0
307 15 0.0641773 0.829963 0.184979 0 0 0
308 16 0.0860249 0.852239 0.20225 0 0 0
309 16 0.0558434 0.847165 0.154872 0 0 0
310 15 0.0815645 0.789783 0.456011 0 0 0
311 16 0.106508 0.815226 0.454492 0 0 0
1596 16 0.806711 0.70099 0.0614487 0 0 0
764 16 0.262067 0.82008 0.0056831 0 0 0
1872 16 0.852721 0.877105 0.0740034 0 0 0
328 15 0.119155 0.945672 0.0871332 0 -1 0
329 16 0.139638 0.925704 0.0658361 0 -1 0
330 16 0.0868936 0.930595 0.0852138 0 -1 0
331 15 0.173474 0.0699036 0.0691513 0 0 0
332 16 0.190853 0.042437 0.0544751 0 0 0
333 16 0.140973 0.068769 0.0545151 0 0 0
334 15 0.0685288 0.801364 0.331485 0 -1 0
335 16 0.0393091 0.818137 0.343178 0 -1 0
336 16 0.0933465 0.808427 0.356102 0 -1 0
337 15 0.141276 0.00432154 0.347653 0 0 0
338 16 0.143066 0.0165872 0.381092 0 0 0
1303 15 0.722395 0.33642 0.0692236 0 0 0
1871 16 0.862252 0.913929 0.0323561 0 0 0
1731 16 0.850287 0.342918 0.138794 0 0 0
622 15 0.468552 0.153172 0.0781651 0 0 0
1488 16 0.761561 0.393283 0.483771 0 0 0
358 15 0.19326 0.208277 0.189165 0 0 0
359 16 0.207063 0.237707 0.174495 0 0 0
360 16 0.180634 0.219091 0.220716 0 0 0
361 15 0.152492 0.226961 0.280456 0 0 0
362 16 0.165594 0.213866 0.310931 0 0 0
363 16 0.12391 0.206762 0.273603 0 0 0
364 15 0.116515 0.0859611 0.269264 0 0 0
365 16 0.141264 0.070245 0.289569 0 0 0
366 16 0.13089 0.0867287 0.236635 0 0 0
1870 15 0.84847 0.911388 0.0651498 0 0 0
1479 16 0.798504 0.223353 0.0563845 0 0 0
588 16 0.275613 0.0956743 0.493735 0 0 0
382 15 0.140624 0.263161 0.0803122 0 0 0
383 16 0.175641 0.264934 0.0868297 0 0 0
384 16 0.125321 0.273817 0.110711 0 0 0
385 15 0.235403 0.280471 0.11678 0 0 0
386 16 0.249831 0.303925 0.139441 0 0 0
387 16 0.263051 0.261312 0.104934 0 0 0
388 15 0.0951806 0.287515 0.386146 0 0 0
389 16 0.118081 0.262423 0.397 0 0 0
390 16 0.115393 0.316443 0.380999 0 0 0
391 15 0.0155149 0.258879 0.44293 0 0 0
392 16 0.00934707 0.28117 0.470076 0 0 0
393 16 0.0477344 0.268225 0.430831 0 0 0
678 16 0.300118 0.573611 0.451656 0 0 0
514 15 0.282319 0.967162 0.108994 0 0 0
1031 16 0.329138 0.250392 0.460611 0 0 0
615 16 0.328024 0.169027 0.496211 0 0 0
410 16 0.137353 0.40055 0.0134814 0 0 0
1809 16 0.765325 0.549669 0.0108812 0 0 1
412 15 0.140316 0.346751 0.188632 0 0 0
413 16 0.137615 0.345366 0.224165 0 0 0
414 16 0.141983 0.381578 0.181142 0 0 0
415 15 0.974142 0.315171 0.349649 -1 0 0
416 16 0.988139 0.345861 0.361227 -1 0 0
417 16 0.9508 0.305879 0.374961 -1 0 0
418 15 0.246231 0.484991 0.310944 0 0 0
419 16 0.24718 0.506365 0.282412 0 0 0
420 16 0.259764 0.504748 0.33737 0 0 0
1772 16 0.850351 0.615433 0.401288 0 0 0
436 15 0.112446 0.410316 0.0774027 0 0 0
437 16 0.104199 0.439597 0.0960141 0 0 0
438 16 0.090602 0.385173 0.0901495 0 0 0
439 15 0.0846295 0.451959 0.16903 0 0 0
440 16 0.110404 0.471797 0.183657 0 0 0
441 16 0.064948 0.441056 0.196699 0 0 0
442 15 0.127878 0.541812 0.421309 0 0 0
443 16 0.104503 0.519882 0.436947 0 0 0
444 16 0.122608 0.537049 0.386362 0 0 0
626 16 0.275947 0.266898 0.026842 0 0 0
342 16 0.180991 0.994109 0.474096 0 -1 0
554 16 0.142321 0.692893 0.50313 0 0 0
87 16 0.892593 0.0632098 0.0869641 -1 0 0
900 16 0.535182 0.761146 0.108835 0 0 0
463 15 0.0504801 0.512875 0.0595455 0 0 0
464 16 0.0630371 0.493111 0.0326468 0 0 0
465 16 0.076215 0.536738 0.0658794 0 0 0
466 15 0.147971 0.591601 0.181951 0 0 0
467 16 0.141325 0.617381 0.205679 0 0 0
468 16 0.11964 0.591866 0.160292 0 0 0
469 15 0.225992 0.567621 0.373894 0 0 0
470 16 0.198126 0.547388 0.383161 0 0 0
471 16 0.234222 0.585631 0.403555 0 0 0
1202 16 0.490103 0.42248 0.017248 0 0 0
1807 15 0.763316 0.514467 0.01623 0 0 1
1163 16 0.684589 0.297159 -0.00628225 0 0 0
1861 15 0.961242 0.870921 0.0318802 0 0 1
352 15 0.081186 0.0746719 0.0168646 0 0 0
1070 16 0.414802 0.80409 0.426921 0 0 0
776 16 0.107761 0.902894 0.469359 0 0 0
493 15 0.101314 0.61196 0.281654 0 0 0
494 16 0.107489 0.577858 0.290065 0 0 0
495 16 0.132011 0.628637 0.288827 0 0 0
496 15 0.0201338 0.509389 0.446595 0 0 0
497 16 -0.00178467 0.53584 0.437019 0 0 0
498 16 0.0125488 0.503482 0.480937 0 0 0
499 15 0.167017 0.641596 0.471904 0 0 0
500 16 0.20151 0.641913 0.462853 0 0 0
501 16 0.157098 0.607548 0.468139 0 0 0
1358 16 0.562137 0.572188 0.0423525 0 0 0
667 15 0.264817 0.530578 0.0239806 0 0 0
517 15 0.25392 0.671476 0.133397 0 0 0
518 16 0.229019 0.672153 0.158918 0 0 0
519 16 0.235827 0.6767 0.103112 0 0 0
520 15 0.15872 0.703655 0.171472 0 0 0
521 16 0.154957 0.703371 0.13601 0 0 0
522 16 0.164968 0.73783 0.179527 0 0 0
523 15 0.295314 0.636008 0.287023 0 0 0
524 16 0.265343 0.624921 0.302854 0 0 0
525 16 0.293514 0.671599 0.288399 0 0 0
1052 16 0.682488 0.630827 0.0750804 0 0 0
627 16 0.236029 0.301162 0.0471872 0 0 0
149 16 0.945348 0.215672 0.409885 -1 0 0
607 15 0.152796 0.226003 0.48921 0 0 0
544 15 0.150657 0.103345 0.170378 0 1 0
545 16 0.155534 0.0994132 0.13527 0 1 0
546 16 0.156935 0.137921 0.17646 0 1 0
547 15 0.112867 0.922761 0.191593 0 0 0
548 16 0.127155 0.953432 0.202861 0 0 0
549 16 0.116047 0.923927 0.156091 0 0 0
550 15 0.176016 0.793531 0.273456 0 0 0
551 16 0.158858 0.814885 0.296291 0 0 0
552 16 0.210087 0.803881 0.275416 0 0 0
1771 15 0.87207 0.599658 0.37781 0 0 0
624 16 0.477163 0.176944 0.0530148 0 0 0
1518 16 0.781271 0.500533 0.467174 0 0 0
677 16 0.303108 0.617096 0.487453 0 0 0
1648 15 0.514757 0.969886 0.155249 0 -1 0
1770 16 0.767671 0.657693 0.444146 0 0 0
572 16 0.375475 0.089651 0.0174481 0 0 0
394 15 0.0900241 0.16531 0.432466 0 0 0
574 15 0.229428 0.940157 0.358337 0 -1 0
575 16 0.198802 0.956626 0.350423 0 -1 0
576 16 0.238143 0.95252 0.390632 0 -1 0
577 15 0.257986 0.12348 0.212854 0 0 0
578 16 0.230957 0.119608 0.189914 0 0 0
579 16 0.248682 0.103728 0.241051 0 0 0
580 15 0.218052 0.0553406 0.289223 0 0 0
1532 16 0.752268 0.501843 0.0902001 0 0 0
582 16 0.192673 0.0342433 0.302737 0 0 0
194 16 0.850434 0.276275 0.0127078 -1 0 0
484 15 0.00343154 0.76983 0.0490387 0 0 1
598 15 0.278116 0.106937 0.0759798 0 0 0
599 16 0.283581 0.0747873 0.0615446 0 0 0
600 16 0.243572 0.107003 0.0848427 0 0 0
601 15 0.188809 0.994191 0.160748 0 -1 0
602 16 0.172345 0.973638 0.136699 0 -1 0
603 16 0.179785 0.0274923 0.151723 0 0 0
604 15 0.332636 0.157417 0.145563 0 0 0
605 16 0.322287 0.137018 0.118202 0 0 0
606 16 0.313676 0.145462 0.173301 0 0 0
1452 16 0.734411 0.0690337 0.0979698 0 0 0
223 15 0.898778 0.460472 -0.000917683 -1 0 0
1573 15 0.740686 0.82873 0.0938377 0 0 0
736 15 0.261378 0.811322 0.0698108 0 0 0
1305 16 0.755185 0.330244 0.0566313 0 0 0
1204 15 0.649648 0.513563 0.146348 0 0 0
775 15 0.135745 0.881908 0.462411 0 0 0
486 16 0.000641403 0.802068 0.0640301 0 0 1
195 16 0.85118 0.314066 0.0545718 -1 0 0
628 15 0.301704 0.316038 0.196252 0 0 0
629 16 0.295859 0.291058 0.221025 0 0 0
630 16 0.283911 0.344623 0.208006 0 0 0
631 15 0.397886 0.292965 0.283039 0 0 0
632 16 0.399354 0.328582 0.284115 0 0 0
633 16 0.387184 0.285456 0.24986 0 0 0
634 15 0.163073 0.331318 0.288405 0 0 0
635 16 0.196579 0.325614 0.299207 0 0 0
636 16 0.153624 0.300998 0.272182 0 0 0
1607 16 0.873228 0.732309 0.479618 0 0 0
380 16 0.112623 0.205906 0.0486383 0 0 0
649 15 0.207031 0.451478 0.0984697 0 0 0
650 16 0.182287 0.443352 0.0741075 0 0 0
651 16 0.188504 0.457695 0.128301 0 0 0
652 15 0.152477 0.439827 0.29718 0 0 0
653 16 0.154308 0.404677 0.29144 0 0 0
654 16 0.181263 0.447177 0.316908 0 0 0
655 15 0.411664 0.325216 0.447012 0 0 0
656 16 0.436281 0.348317 0.458509 0 0 0
657 16 0.403756 0.305563 0.4757 0 0 0
658 15 0.2005 0.240028 0.398919 0 0 0
1869 16 0.766303 0.840639 0.0209962 0 0 0
660 16 0.227446 0.262798 0.404139 0 0 0
1330 15 0.755926 0.396435 0.144968 0 0 0
670 15 0.176337 0.565727 0.0807099 0 0 0
671 16 0.186433 0.558366 0.114112 0 0 0
672 16 0.148501 0.587708 0.0844208 0 0 0
673 15 0.401392 0.396336 0.291843 0 0 0
674 16 0.437018 0.397377 0.293088 0 0 0
675 16 0.391089 0.428294 0.30386 0 0 0
1739 16 0.770518 0.430879 0.419111 0 0 0
1491 16 0.816101 0.23075 0.461992 0 0 0
193 15 0.830743 0.288969 0.0395955 -1 0 0
831 16 0.298657 0.320183 0.408496 0 0 0
1575 16 0.734322 0.796073 0.106677 0 0 0
609 16 0.171623 0.223173 0.459054 0 0 0
1838 16 0.829732 0.653034 0.142348 0 0 0
694 15 0.343793 0.556344 0.0889033 0 0 0
695 16 0.376423 0.551528 0.0753419 0 0 0
696 16 0.341357 0.591548 0.0940525 0 0 0
697 15 0.0892896 0.516642 0.325904 0 0 0
698 16 0.0545319 0.514842 0.318128 0 0 0
699 16 0.103854 0.489372 0.308127 0 0 0
1331 16 0.786272 0.382737 0.157748 0 0 0
1369 15 0.654571 0.743209 0.0836143 0 0 0
715 15 0.0831408 0.613528 0.103799 0 0 0
716 16 0.0960218 0.646227 0.0977472 0 0 0
717 16 0.0480896 0.618401 0.108215 0 0 0
718 15 0.267134 0.553475 0.217053 0 0 0
719 16 0.298021 0.548159 0.200035 0 0 0
720 16 0.269374 0.586846 0.22943 0 0 0
721 15 0.257506 0.70413 0.434511 0 0 0
1038 16 0.337537 0.431517 0.0596625 0 0 0
897 16 0.491755 0.634711 0.070932 0 0 0
805 15 0.244854 0.142467 0.378493 0 0 0
1093 15 0.316878 0.830855 0.490117 0 0 0
739 15 0.347267 0.682239 0.105915 0 0 0
740 16 0.340462 0.690743 0.0719563 0 0 0
741 16 0.315396 0.673989 0.119625 0 0 0
742 15 0.367591 0.529703 0.204602 0 0 0
743 16 0.363349 0.494381 0.202104 0 0 0
744 16 0.39308 0.537347 0.180859 0 0 0
745 15 0.387409 0.630468 0.246119 0 0 0
746 16 0.352859 0.632481 0.254727 0 0 0
747 16 0.391675 0.597207 0.233981 0 0 0
748 15 0.327519 0.798798 0.387223 0 0 0
749 16 0.33077 0.77239 0.41097 0 0 0
750 16 0.311119 0.824934 0.405107 0 0 0
1851 16 0.810409 0.815828 0.423282 0 0 0
766 15 0.359555 0.0283737 0.0325335 0 1 0
767 16 0.331866 0.00808285 0.0421976 0 1 0
768 16 0.388253 0.00909634 0.041288 0 1 0
769 15 0.176843 0.801412 0.168299 0 0 0
770 16 0.195191 0.831983 0.169053 0 0 0
771 16 0.160647 0.799919 0.200036 0 0 0
772 15 0.174707 0.750473 0.390436 0 0 0
773 16 0.203217 0.739147 0.408623 0 0 0
774 16 0.183619 0.783153 0.379282 0 0 0
1391 16 0.64306 0.56727 0.471589 0 0 0
1371 16 0.635046 0.759817 0.0588203 0 0 0
895 15 0.488536 0.602286 0.0564377 0 0 0
1863 16 0.94159 0.84671 0.014576 0 0 1
613 15 0.320336 0.135753 0.485936 0 0 0
1050 16 0.491291 0.704663 0.135284 0 0 0
793 15 0.32152 0.934052 0.308113 0 -1 0
794 16 0.301471 0.949032 0.33352 0 -1 0
795 16 0.355049 0.938379 0.319469 0 -1 0
796 15 0.399458 0.0869034 0.209201 0 0 0
797 16 0.399518 0.0962613 0.174789 0 0 0
798 16 0.423352 0.060514 0.211332 0 0 0
799 15 0.26213 0.305511 0.307934 0 0 0
800 16 0.271606 0.279142 0.285873 0 0 0
801 16 0.292911 0.321062 0.317021 0 0 0
802 15 0.16432 0.859008 0.367487 0 -1 0
803 16 0.19227 0.880252 0.361214 0 -1 0
804 16 0.154648 0.866609 0.400961 0 -1 0
1850 16 0.850824 0.788307 0.395164 0 0 0
1594 15 0.806411 0.725111 0.0351818 0 0 0
820 15 0.405116 0.200249 0.20122 0 0 0
821 16 0.408831 0.22023 0.171915 0 0 0
822 16 0.380206 0.176238 0.192572 0 0 0
823 15 0.323931 0.227624 0.0618943 0 0 0
824 16 0.359047 0.233794 0.0626953 0 0 0
825 16 0.318075 0.205701 0.0894075 0 0 0
826 15 0.299568 0.225342 0.250168 0 0 0
827 16 0.297168 0.222705 0.285652 0 0 0
828 16 0.284902 0.195216 0.237952 0 0 0
1546 15 0.866956 0.543113 0.483059 0 0 0
830 16 0.260488 0.33131 0.448504 0 0 0
1378 15 0.587909 0.773975 0.0174128 0 0 0
1048 15 0.520459 0.694723 0.117333 0 0 0
1187 16 0.408886 0.384971 0.0075642 0 0 0
847 15 0.429273 0.267263 0.0650347 0 0 0
848 16 0.446044 0.25224 0.037379 0 0 0
849 16 0.45196 0.263611 0.0923068 0 0 0
850 15 0.621613 0.131485 0.173464 0 0 0
851 16 0.600914 0.127432 0.202222 0 0 0
852 16 0.631419 0.165764 0.174266 0 0 0
853 15 0.369854 0.214799 0.34964 0 0 0
854 16 0.402525 0.201186 0.354011 0 0 0
855 16 0.375227 0.245624 0.332531 0 0 0
981 16 0.609197 0.0700111 0.387388 0 0 0
1734 16 0.879735 0.412194 0.161404 0 0 0
858 16 0.33627 0.472775 0.45035 0 0 0
1849 15 0.843892 0.803963 0.426448 0 0 0
1763 16 0.971755 0.479797 0.302397 0 0 0
865 15 0.314667 0.46683 0.111544 0 0 0
866 16 0.324069 0.501222 0.11079 0 0 0
867 16 0.281555 0.46632 0.0983094 0 0 0
868 15 0.489846 0.264641 0.321094 0 0 0
869 16 0.459968 0.269636 0.302275 0 0 0
870 16 0.47958 0.245209 0.34918 0 0 0
871 15 0.346461 0.345019 0.372874 0 0 0
872 16 0.361453 0.371352 0.35407 0 0 0
873 16 0.371616 0.335234 0.396183 0 0 0
381 16 0.133864 0.16382 0.0176711 0 0 0
977 16 0.282707 0.947419 0.476444 0 -1 0
1758 16 0.78411 0.413458 0.00422618 0 0 0
1447 15 0.671538 0.903526 0.0510005 0 -1 1
1733 16 0.910992 0.434125 0.11989 0 0 0
880 15 0.187396 0.481476 0.198761 0 0 0
881 16 0.189594 0.5168 0.203153 0 0 0
882 16 0.173901 0.469467 0.22951 0 0 0
883 15 0.262217 0.416966 0.228342 0 0 0
884 16 0.251975 0.434009 0.257947 0 0 0
885 16 0.249314 0.436823 0.201676 0 0 0
1848 16 0.660183 0.865581 0.290617 0 0 0
889 15 0.444671 0.512122 0.0981156 0 0 0
890 16 0.432926 0.499445 0.0669191 0 0 0
891 16 0.480178 0.512514 0.0948091 0 0 0
722 16 0.246796 0.707902 0.468318 0 0 0
433 15 0.993661 0.350059 0.0227543 -1 0 0
1380 16 0.575754 0.741956 0.00747181 0 0 0
86 16 0.942 0.081037 0.0664096 -1 0 0
1810 15 0.865457 0.57211 0.00853823 0 0 0
1760 16 0.865653 0.634816 0.239 0 0 0
1847 16 0.638302 0.817895 0.269916 0 0 0
1489 15 0.83646 0.205045 0.476013 0 0 0
916 15 0.227437 0.888752 0.1941 0 0 0
917 16 0.262455 0.895495 0.194364 0 0 0
918 16 0.21214 0.920765 0.1977 0 0 0
919 15 0.430392 0.695419 0.168426 0 0 0
920 16 0.402997 0.69717 0.14566 0 0 0
921 16 0.416842 0.679922 0.197547 0 0 0
738 16 0.234182 0.812489 0.0928499 0 0 0
587 16 0.224363 0.0813778 0.475017 0 0 0
1071 16 0.45123 0.780049 0.462648 0 0 0
1049 16 0.532428 0.666076 0.134881 0 0 0
573 16 0.407814 0.134136 0.0299611 0 0 0
940 15 0.321191 0.928093 0.201932 0 0 0
941 16 0.35087 0.908407 0.200074 0 0 0
942 16 0.319408 0.938384 0.236031 0 0 0
943 15 0.349952 0.774924 0.289519 0 0 0
944 16 0.352592 0.778824 0.32487 0 0 0
945 16 0.316028 0.783074 0.282134 0 0 0
946 15 0.26866 0.839313 0.295519 0 0 0
947 16 0.292089 0.844559 0.32189 0 0 0
948 16 0.276188 0.864745 0.27168 0 0 0
877 15 0.543071 0.511077 0.0953584 0 0 0
1464 16 0.912624 0.152432 0.279341 0 0 0
1477 15 0.781201 0.192255 0.0540832 0 0 0
583 15 0.164778 0.106121 0.463069 0 0 0
1773 16 0.866629 0.617334 0.347318 0 0 0
1531 15 0.745474 0.496831 0.124849 0 0 0
967 15 0.341788 0.816351 0.13466 0 -1 0
968 16 0.348628 0.822237 0.169162 0 -1 0
969 16 0.3691 0.831477 0.117423 0 -1 0
970 15 0.42985 0.930758 0.329873 0 -1 0
971 16 0.46019 0.948747 0.335138 0 -1 0
972 16 0.439184 0.90341 0.308973 0 -1 0
973 15 0.435465 0.0158565 0.428943 0 0 0
974 16 0.440055 0.00764575 0.394544 0 0 0
975 16 0.467306 0.0278814 0.439591 0 0 0
976 15 0.260906 0.964152 0.453716 0 -1 0
1085 16 0.308143 0.918163 0.00874956 0 0 0
829 15 0.269904 0.306567 0.42461 0 0 0
614 16 0.338133 0.131512 0.455324 0 0 0
994 15 0.507811 0.157205 0.212824 0 0 0
995 16 0.478656 0.168382 0.230056 0 0 0
996 16 0.510684 0.179212 0.184909 0 0 0
997 15 0.436264 0.145825 0.286829 0 0 0
998 16 0.425452 0.17925 0.280691 0 0 0
999 16 0.421228 0.126641 0.260796 0 0 0
1000 15 0.38335 0.0426242 0.297995 0 0 0
1001 16 0.383867 0.0637268 0.26925 0 0 0
1002 16 0.410374 0.0199169 0.292903 0 0 0
1003 15 0.455583 0.209062 0.406253 0 0 0
1004 16 0.444819 0.179525 0.423093 0 0 0
1005 16 0.46566 0.231101 0.432418 0 0 0
1846 15 0.632917 0.842961 0.294705 0 0 0
1010 16 0.456032 0.0966523 0.47294 0 0 0
1021 15 0.493223 0.276571 0.144772 0 0 0
1022 16 0.522405 0.259566 0.15622 0 0 0
1023 16 0.489191 0.303727 0.167534 0 0 0
1024 15 0.585993 0.262316 0.294012 0 0 0
1025 16 0.553458 0.268882 0.307058 0 0 0
1026 16 0.597547 0.294007 0.282434 0 0 0
1027 15 0.578131 0.180024 0.357305 0 0 0
1028 16 0.582527 0.212275 0.342731 0 0 0
1029 16 0.575016 0.186358 0.392262 0 0 0
1516 15 0.756191 0.497371 0.442019 0 0 0
1759 15 0.852332 0.628905 0.206451 0 0 0
571 15 0.391404 0.117966 0.00273924 0 0 0
1845 16 0.0447074 0.685167 0.334501 1 0 0
312 16 0.0911333 0.769527 0.483759 0 0 0
1039 15 0.362526 0.417604 0.184373 0 0 0
1040 16 0.348919 0.437156 0.157832 0 0 0
1041 16 0.33425 0.408239 0.203984 0 0 0
1042 15 0.627692 0.454442 0.405298 0 0 0
1043 16 0.641185 0.474627 0.379178 0 0 0
1044 16 0.627795 0.421355 0.391991 0 0 0
1738 15 0.792339 0.403187 0.413738 0 0 0
1145 16 0.711692 0.0675115 0.455631 0 0 0
1729 15 0.833273 0.347608 0.169784 0 0 0
1844 16 0.0476191 0.74036 0.32325 1 0 0
1795 15 0.964919 0.587553 0.413896 0 0 0
1843 15 0.0370884 0.709259 0.309335 1 0 0
1065 16 0.395561 0.962908 0.472666 0 0 0
1842 16 0.949471 0.744369 0.0821498 0 0 0
1841 16 0.90067 0.758142 0.10685 0 0 0
1794 16 0.777999 0.5978 0.33762 0 0 0
1057 15 0.337299 0.692919 0.00291867 0 0 0
10 3 0.512616 0.538165 0.470384 0 0 0
1407 16 0.652272 0.85079 0.500445 0 0 0
1060 15 0.42894 0.674937 0.336057 0 0 0
1061 16 0.424879 0.650254 0.310639 0 0 0
1062 16 0.406696 0.701183 0.326669 0 0 0
1063 15 0.366441 0.955083 0.491709 0 0 0
1784 16 0.813368 0.604071 0.00923823 0 0 0
435 16 0.017144 0.327032 0.00896431 0 0 0
1066 15 0.444174 0.671792 0.439095 0 0 0
1067 16 0.438151 0.705397 0.4494 0 0 0
1068 16 0.442215 0.672867 0.403503 0 0 0
1840 15 0.924684 0.731877 0.104542 0 0 0
1020 16 0.329962 0.346358 0.131705 0 0 0
1837 15 0.836309 0.668028 0.110666 0 0 0
1053 16 0.637795 0.617541 0.0433406 0 0 0
807 16 0.277585 0.130283 0.371278 0 0 0
1011 16 0.405792 0.10701 0.449488 0 0 0
1087 15 0.389172 0.858703 0.226655 0 0 0
1088 16 0.417555 0.858451 0.205064 0 0 0
1089 16 0.395549 0.832606 0.250111 0 0 0
1090 15 0.296541 0.0436781 0.365984 0 1 0
1091 16 0.314524 0.0650792 0.388129 0 1 0
1092 16 0.321197 0.0316307 0.343207 0 1 0
585 16 0.154997 0.0720293 0.459334 0 0 0
1018 15 0.341302 0.336635 0.0993205 0 0 0
1030 15 0.343107 0.231162 0.487199 0 0 0
1839 16 0.86029 0.693488 0.117629 0 0 0
1504 15 0.928214 0.408875 0.248925 0 0 0
1111 15 0.440929 0.984135 0.0795874 0 -1 0
1112 16 0.440221 0.94848 0.0795634 0 -1 0
1113 16 0.456771 0.992743 0.110357 0 -1 0
1114 15 0.49641 0.00524802 0.341909 0 0 0
1115 16 0.497008 0.0396772 0.351188 0 0 0
1116 16 0.529758 0.993905 0.347485 0 -1 0
1117 15 0.483698 0.0241596 0.234813 0 0 0
1118 16 0.502526 0.0177301 0.26441 0 0 0
1119 16 0.497327 0.00187784 0.21053 0 0 0
1120 15 0.586618 0.959719 0.350507 0 -1 0
1121 16 0.580086 0.927455 0.364225 0 -1 0
1122 16 0.60237 0.953103 0.319203 0 -1 0
1054 15 0.232618 -0.00384113 0.0113704 0 1 0
449 16 0.203875 0.400755 0.489873 0 0 0
1138 15 0.579076 0.111383 0.271346 0 0 0
1139 16 0.545082 0.113773 0.260835 0 0 0
1140 16 0.584752 0.14118 0.2901 0 0 0
1141 15 0.504449 0.108664 0.353293 0 0 0
1142 16 0.530187 0.132613 0.359277 0 0 0
1143 16 0.484756 0.12302 0.327256 0 0 0
1144 15 0.735284 0.0936561 0.461261 0 0 0
286 15 0.987481 0.837759 0.472217 -1 0 0
1146 16 0.765919 0.0810532 0.448051 0 0 0
1147 15 0.513968 0.0505942 0.474637 0 0 0
1148 16 0.54603 0.064696 0.467929 0 0 0
434 16 0.00705275 0.35841 0.0547352 0 0 0
1007 16 0.390774 0.0998383 0.366628 0 0 0
1165 15 0.55421 0.281808 0.0538366 0 0 0
1166 16 0.540947 0.249934 0.0627808 0 0 0
1167 16 0.546705 0.302756 0.0817056 0 0 0
1168 15 0.586685 0.24347 0.194514 0 0 0
1169 16 0.582653 0.245233 0.229904 0 0 0
1170 16 0.621881 0.246072 0.189384 0 0 0
1171 15 0.55899 0.265626 0.437611 0 0 0
1172 16 0.590422 0.259849 0.421785 0 0 0
1173 16 0.566559 0.266561 0.472449 0 0 0
1174 15 0.648718 0.215333 0.458445 0 0 0
1175 16 0.657686 0.24728 0.471514 0 0 0
1176 16 0.670894 0.210371 0.43096 0 0 0
1793 16 0.767798 0.592591 0.282392 0 0 0
1189 15 0.480406 0.351303 0.207349 0 0 0
1190 16 0.460664 0.380209 0.200527 0 0 0
1191 16 0.497064 0.358874 0.237961 0 0 0
1192 15 0.506291 0.365486 0.306534 0 0 0
1193 16 0.528128 0.381023 0.330063 0 0 0
1194 16 0.499779 0.333246 0.320316 0 0 0
1195 15 0.527839 0.356147 0.407327 0 0 0
1196 16 0.525279 0.324148 0.422862 0 0 0
1197 16 0.558349 0.354731 0.388916 0 0 0
1824 16 0.973082 0.724799 0.47819 0 0 0
737 16 0.290292 0.807343 0.0903042 0 0 0
669 16 0.237124 0.533146 0.0463031 0 0 0
1586 16 0.943715 0.613485 0.471803 0 0 0
341 16 0.127142 0.980481 0.464303 0 -1 0
1737 16 0.969856 0.271099 0.295366 0 0 0
300 16 0.94758 0.996458 0.0231568 -1 0 0
1664 16 0.835546 0.980485 0.454112 0 -1 0
777 16 0.162403 0.895944 0.481495 0 0 0
723 16 0.278094 0.675012 0.434851 0 0 0
395 16 0.0656453 0.182728 0.451808 0 0 0
980 16 0.595141 0.015387 0.387477 0 0 0
1766 16 0.880819 0.482964 0.388309 0 0 0
1225 15 0.488696 0.771991 0.216291 0 0 0
1226 16 0.505057 0.783144 0.186631 0 0 0
1227 16 0.46544 0.747434 0.204979 0 0 0
1228 15 0.509073 0.739681 0.366171 0 0 0
1229 16 0.490444 0.757626 0.390722 0 0 0
1230 16 0.484472 0.721631 0.34771 0 0 0
1231 15 0.411042 0.880357 0.428071 0 0 0
1232 16 0.379992 0.891364 0.441731 0 0 0
1233 16 0.412747 0.895947 0.396042 0 0 0
1234 15 0.513204 0.88784 0.45429 0 0 0
979 15 0.606782 0.0415468 0.408737 0 0 0
1236 16 0.477706 0.884565 0.455307 0 0 0
1370 16 0.650236 0.708504 0.0766417 0 0 0
584 16 0.136449 0.124803 0.452099 0 0 0
1792 15 0.754195 0.584851 0.314436 0 0 0
1252 15 0.57638 0.875817 0.147151 0 -1 0
1253 16 0.581521 0.894575 0.117259 0 -1 0
1254 16 0.565782 0.843699 0.135841 0 -1 0
1255 15 0.50642 0.886835 0.223054 0 -1 0
1256 16 0.53538 0.88163 0.202902 0 -1 0
1257 16 0.503487 0.856998 0.242367 0 -1 0
1258 15 0.64021 0.0304271 0.264217 0 0 0
1259 16 0.668115 0.0458694 0.280175 0 0 0
1260 16 0.61462 0.0552545 0.264958 0 0 0
1261 15 0.658631 0.968656 0.454494 0 -1 0
1262 16 0.664514 0.986186 0.484989 0 -1 0
1263 16 0.633789 0.987979 0.437722 0 -1 0
515 16 0.257965 0.969515 0.134939 0 0 0
125 16 0.0145825 0.0538386 0.470186 0 0 0
1279 15 0.540599 0.0600871 0.0425936 0 0 0
1280 16 0.521387 0.0300443 0.0429448 0 0 0
1281 16 0.52606 0.0796946 0.0165939 0 0 0
1282 15 0.612076 0.0392986 0.126142 0 0 0
1283 16 0.585714 0.0250445 0.106811 0 0 0
1284 16 0.600036 0.0716154 0.135226 0 0 0
1285 15 0.720697 0.171562 0.39017 0 0 0
1286 16 0.745368 0.16986 0.364474 0 0 0
1287 16 0.729112 0.144992 0.41242 0 0 0
1288 15 0.778449 0.0105942 0.329122 0 0 0
1289 16 0.756558 0.986476 0.343647 0 -1 0
1650 16 0.516342 0.939254 0.173441 0 -1 0
1821 16 0.894672 0.768644 0.303077 0 0 0
1791 16 0.870531 0.680433 0.299973 0 0 0
1765 15 0.851455 0.491891 0.370147 0 0 0
1306 15 0.639522 0.100991 0.0335519 0 0 0
1307 16 0.6664 0.0977602 0.0567664 0 0 0
1308 16 0.610428 0.0924177 0.0523098 0 0 0
1309 15 0.715735 0.118529 0.215995 0 0 0
1310 16 0.685347 0.106265 0.201925 0 0 0
1311 16 0.717572 0.152445 0.205128 0 0 0
1312 15 0.616481 0.36026 0.354474 0 0 0
1313 16 0.630111 0.33518 0.375854 0 0 0
1314 16 0.638989 0.361654 0.326847 0 0 0
298 15 0.931733 0.968695 0.00734775 -1 0 0
1652 16 0.76823 0.991773 0.092309 0 -1 0
1164 16 0.696025 0.252061 0.0256037 0 0 0
1820 16 0.87747 0.820402 0.317449 0 0 0
1790 16 0.814775 0.67948 0.291506 0 0 0
1333 15 0.66919 0.32439 0.188428 0 0 0
1334 16 0.647413 0.342555 0.166803 0 0 0
1335 16 0.668502 0.342544 0.219116 0 0 0
1336 15 0.881658 0.318237 0.294238 0 0 0
1337 16 0.897688 0.3299 0.323883 0 0 0
1338 16 0.905752 0.296928 0.278837 0 0 0
1339 15 0.824665 0.467425 0.268321 0 0 0
1340 16 0.824654 0.472996 0.303546 0 0 0
1341 16 0.85659 0.479016 0.257445 0 0 0
1732 15 0.900203 0.440259 0.153324 0 0 0
1343 16 0.652193 0.425916 0.481042 0 0 0
1008 16 0.35768 0.14492 0.373958 0 0 0
668 16 0.293508 0.533688 0.0449326 0 0 0
1736 16 0.935808 0.226228 0.298321 0 0 0
491 16 0.179591 0.713558 0.0287461 0 0 0
1574 16 0.738703 0.850083 0.122332 0 0 0
1363 15 0.731441 0.447235 0.233317 0 0 0
1364 16 0.723201 0.466334 0.204349 0 0 0
1365 16 0.763501 0.459341 0.243186 0 0 0
1332 16 0.735756 0.401979 0.173852 0 0 0
1819 15 0.892457 0.790936 0.330826 0 0 0
1675 15 0.848386 0.128198 0.0231575 0 0 0
1663 15 0.848647 0.972961 0.421808 0 -1 0
492 16 0.232924 0.73123 0.033712 0 0 0
566 16 0.208088 0.877115 0.0148421 0 0 1
1818 16 0.928553 0.539063 0.191599 0 0 0
1381 15 0.613212 0.69394 0.226126 0 0 0
1382 16 0.618123 0.7243 0.208071 0 0 0
1383 16 0.615294 0.703496 0.260421 0 0 0
1384 15 0.558562 0.858975 0.366827 0 0 0
1385 16 0.575244 0.8378 0.390176 0 0 0
1386 16 0.577321 0.855578 0.336688 0 0 0