 vasp.5.4.4.18Apr17-6-g9f103f2a35 (build May 02 2017 19:20:32) complex          
  
 executed on    fermion-Intel-MKL date 2017.12.10  16:45:46
 running on    7 total cores
 distrk:  each k-point on    7 cores,    1 groups
 distr:  one band on NCORES_PER_BAND=   1 cores,    7 groups


--------------------------------------------------------------------------------------------------------


 INCAR:
 POTCAR:   PAW_PBE C 08Apr2002                    

 ----------------------------------------------------------------------------- 
|                                                                             |
|           W    W    AA    RRRRR   N    N  II  N    N   GGGG   !!!           |
|           W    W   A  A   R    R  NN   N  II  NN   N  G    G  !!!           |
|           W    W  A    A  R    R  N N  N  II  N N  N  G       !!!           |
|           W WW W  AAAAAA  RRRRR   N  N N  II  N  N N  G  GGG   !            |
|           WW  WW  A    A  R   R   N   NN  II  N   NN  G    G                |
|           W    W  A    A  R    R  N    N  II  N    N   GGGG   !!!           |
|                                                                             |
|      For optimal performance we recommend to set                            |
|        NCORE= 4 - approx SQRT( number of cores)                             |
|      NCORE specifies how many cores store one orbital (NPAR=cpu/NCORE).     |
|      This setting can  greatly improve the performance of VASP for DFT.     |
|      The default,   NCORE=1            might be grossly inefficient         |
|      on modern multi-core architectures or massively parallel machines.     |
|      Do your own testing !!!!                                               |
|      Unfortunately you need to use the default for GW and RPA calculations. |
|      (for HF NCORE is supported but not extensively tested yet)             |
|                                                                             |
 ----------------------------------------------------------------------------- 

 POTCAR:   PAW_PBE C 08Apr2002                    
   VRHFIN =C: s2p2                                                              
   LEXCH  = PE                                                                  
   EATOM  =   147.1560 eV,   10.8157 Ry                                         
                                                                                
   TITEL  = PAW_PBE C 08Apr2002                                                 
   LULTRA =        F    use ultrasoft PP ?                                      
   IUNSCR =        0    unscreen: 0-lin 1-nonlin 2-no                           
   RPACOR =     .000    partial core radius                                     
   POMASS =   12.011; ZVAL   =    4.000    mass and valenz                      
   RCORE  =    1.500    outmost cutoff radius                                   
   RWIGS  =    1.630; RWIGS  =     .863    wigner-seitz radius (au A)           
   ENMAX  =  400.000; ENMIN  =  300.000 eV                                      
   ICORE  =        2    local potential                                         
   LCOR   =        T    correct aug charges                                     
   LPAW   =        T    paw PP                                                  
   EAUG   =  644.873                                                            
   DEXC   =     .000                                                            
   RMAX   =    2.266    core radius for proj-oper                               
   RAUG   =    1.300    factor for augmentation sphere                          
   RDEP   =    1.501    radius for radial grids                                 
   RDEPT  =    1.300    core radius for aug-charge                              
   QCUT   =   -5.516; QGAM   =   11.032    optimization parameters              
                                                                                
   Description                                                                  
     l     E      TYP  RCUT    TYP  RCUT                                        
     0   .000     23  1.200                                                     
     0   .000     23  1.200                                                     
     1   .000     23  1.500                                                     
     1  2.500     23  1.500                                                     
     2   .000      7  1.500                                                     
  local pseudopotential read in
  atomic valenz-charges read in
  non local Contribution for L=           0  read in
    real space projection operators read in
  non local Contribution for L=           0  read in
    real space projection operators read in
  non local Contribution for L=           1  read in
    real space projection operators read in
  non local Contribution for L=           1  read in
    real space projection operators read in
    PAW grid and wavefunctions read in
 
   number of l-projection  operators is LMAX  =           4
   number of lm-projection operators is LMMAX =           8
 

 ----------------------------------------------------------------------------- 
|                                                                             |
|  ADVICE TO THIS USER RUNNING 'VASP/VAMP'   (HEAR YOUR MASTER'S VOICE ...):  |
|                                                                             |
|      You have a (more or less) 'small supercell' and for smaller cells      |
|      it is recommended  to use the reciprocal-space projection scheme!      |
|      The real space optimization is not  efficient for small cells and it   |
|      is also less accurate ...                                              |
|      Therefore set LREAL=.FALSE. in the  INCAR file                         |
|                                                                             |
 ----------------------------------------------------------------------------- 

 Optimization of the real space projectors (new method)

 maximal supplied QI-value         = 25.13
 optimisation between [QCUT,QGAM] = [ 10.05, 20.36] = [ 28.30,116.06] Ry 
 Optimized for a Real-space Cutoff    1.30 Angstroem

   l    n(q)    QCUT    max X(q) W(low)/X(q) W(high)/X(q)  e(spline) 
   0      8    10.053     5.582    0.43E-04    0.44E-04    0.61E-07
   0      8    10.053    69.432    0.49E-03    0.71E-03    0.18E-06
   1      7    10.053     2.780    0.78E-04    0.13E-03    0.11E-06
   1      7    10.053     4.549    0.23E-03    0.19E-03    0.20E-06
 PAW_PBE C 08Apr2002                    :
 energy of atom  1       EATOM= -147.1560
 kinetic energy error for atom=    0.0288 (will be added to EATOM!!)
 
 
 POSCAR: graphite                                
  positions in direct lattice
  velocities in cartesian coordinates
  No initial velocities read in
 exchange correlation table for  LEXCH =        8
   RHO(1)=    0.500       N(1)  =     2000
   RHO(2)=  100.500       N(2)  =     4000
 


--------------------------------------------------------------------------------------------------------


 ion  position               nearest neighbor table
   1  0.000  0.000  0.142-   2 1.43   2 1.43   2 1.43
   2  0.333  0.667  0.142-   1 1.43   1 1.43   1 1.43
 
  LATTYP: Found a hexagonal cell.
 ALAT       =     2.4819487690
 C/A-ratio  =     4.8349104341
  
  Lattice vectors:
  
 A1 = (   2.4819487690,   0.0000000000,   0.0000000000)
 A2 = (  -1.2409743846,   2.1494306848,   0.0000000000)
 A3 = (   0.0000000000,   0.0000000000,  12.0000000000)


Analysis of symmetry for initial positions (statically):
=====================================================================
 Subroutine PRICEL returns:
 Original cell was already a primitive cell.
 

 Routine SETGRP: Setting up the symmetry group for a 
 hexagonal supercell.


 Subroutine GETGRP returns: Found  8 space group operations
 (whereof  2 operations were pure point group operations)
 out of a pool of 24 trial point group operations.


The static configuration has the point symmetry C_1h.
 The point group associated with its full space group is D_2h.


Analysis of symmetry for dynamics (positions and initial velocities):
=====================================================================
 Subroutine PRICEL returns:
 Original cell was already a primitive cell.
 

 Routine SETGRP: Setting up the symmetry group for a 
 hexagonal supercell.


 Subroutine GETGRP returns: Found  8 space group operations
 (whereof  2 operations were pure point group operations)
 out of a pool of 24 trial point group operations.


The dynamic configuration has the point symmetry C_1h.
 The point group associated with its full space group is D_2h.


 Subroutine INISYM returns: Found  8 space group operations
 (whereof  2 operations are pure point group operations),
 and found     1 'primitive' translations



 irot  :   1
 --------------------------------------------------------------------
 isymop:   1   0   0
           0   1   0
           0   0   1

 gtrans:     0.0000000     0.0000000     0.0000000

 ptrans:     0.0000000     0.0000000     0.0000000
 
 rotmap:
 (   1->   1)  (   2->   2) 


 irot  :   2
 --------------------------------------------------------------------
 isymop:   0  -1   0
          -1   0   0
           0   0   1

 gtrans:     0.0000000     0.0000000     0.0000000

 ptrans:     0.0000000     0.0000000     0.0000000
 
 rotmap:
 (   1->   1)  (   2->   2) 


 irot  :   3
 --------------------------------------------------------------------
 isymop:  -1   0   0
           0  -1   0
           0   0  -1

 gtrans:     0.3333300     0.6666700     0.2833400

 ptrans:     0.0000000     0.0000000     0.0000000
 
 rotmap:
 (   1->   2)  (   2->   1) 


 irot  :   4
 --------------------------------------------------------------------
 isymop:  -1   0   0
           0  -1   0
           0   0   1

 gtrans:     0.3333300     0.6666700     0.0000000

 ptrans:     0.0000000     0.0000000     0.0000000
 
 rotmap:
 (   1->   2)  (   2->   1) 


 irot  :   5
 --------------------------------------------------------------------
 isymop:   1   0   0
           0   1   0
           0   0  -1

 gtrans:     0.0000000     0.0000000     0.2833400

 ptrans:     0.0000000     0.0000000     0.0000000
 
 rotmap:
 (   1->   1)  (   2->   2) 


 irot  :   6
 --------------------------------------------------------------------
 isymop:   0  -1   0
          -1   0   0
           0   0  -1

 gtrans:     0.0000000     0.0000000     0.2833400

 ptrans:     0.0000000     0.0000000     0.0000000
 
 rotmap:
 (   1->   1)  (   2->   2) 


 irot  :   7
 --------------------------------------------------------------------
 isymop:   0   1   0
           1   0   0
           0   0   1

 gtrans:     0.3333300     0.6666700     0.0000000

 ptrans:     0.0000000     0.0000000     0.0000000
 
 rotmap:
 (   1->   2)  (   2->   1) 


 irot  :   8
 --------------------------------------------------------------------
 isymop:   0   1   0
           1   0   0
           0   0  -1

 gtrans:     0.3333300     0.6666700     0.2833400

 ptrans:     0.0000000     0.0000000     0.0000000
 
 rotmap:
 (   1->   2)  (   2->   1) 
 
 
 KPOINTS: K-Points                                

Automatic generation of k-mesh.
Space group operators:
 irot       det(A)        alpha          n_x          n_y          n_z        tau_x        tau_y        tau_z
    1     1.000000     0.000000     1.000000     0.000000     0.000000     0.000000     0.000000     0.000000
    2    -1.000000   179.999999     0.500000     0.866025    -0.000000     0.000000     0.000000     0.000000
    3    -1.000000     0.000000     1.000000     0.000000     0.000000     0.333330     0.666670     0.283340
    4     1.000000   180.000000     0.000000     0.000000     1.000000     0.333330     0.666670     0.000000
    5    -1.000000   180.000000     0.000000     0.000000     1.000000     0.000000     0.000000     0.283340
    6     1.000000   180.000000    -0.866025     0.500000     0.000000     0.000000     0.000000     0.283340
    7    -1.000000   180.000000    -0.866025     0.500000     0.000000     0.333330     0.666670     0.000000
    8     1.000000   179.999999     0.500000     0.866025    -0.000000     0.333330     0.666670     0.283340
 
 Subroutine IBZKPT returns following result:
 ===========================================
 
 Found      4 irreducible k-points:
 
 Following reciprocal coordinates:
            Coordinates               Weight
  0.000000  0.000000  0.000000      1.000000
  0.333333  0.000000  0.000000      4.000000
  0.333333  0.333333  0.000000      2.000000
 -0.333333  0.333333  0.000000      2.000000
 
 Following cartesian coordinates:
            Coordinates               Weight
  0.000000  0.000000  0.000000      1.000000
  0.134303  0.077540 -0.000000      4.000000
  0.134303  0.232620 -0.000000      2.000000
 -0.134303  0.077540  0.000000      2.000000
 
 
 Subroutine IBZKPT_HF returns following result:
 ==============================================
 
 Found      9 k-points in 1st BZ
 the following      9 k-points will be used (e.g. in the exchange kernel)
 Following reciprocal coordinates:   # in IRBZ
  0.000000  0.000000  0.000000    0.11111111   1 t-inv F
  0.333333  0.000000  0.000000    0.11111111   2 t-inv F
  0.333333  0.333333  0.000000    0.11111111   3 t-inv F
 -0.333333  0.333333  0.000000    0.11111111   4 t-inv F
 -0.000000 -0.333333  0.000000    0.11111111   2 t-inv F
 -0.333333 -0.000000 -0.000000    0.11111111   2 t-inv F
  0.000000  0.333333  0.000000    0.11111111   2 t-inv F
 -0.333333 -0.333333  0.000000    0.11111111   3 t-inv F
  0.333333 -0.333333  0.000000    0.11111111   4 t-inv F


--------------------------------------------------------------------------------------------------------




 Dimension of arrays:
   k-points           NKPTS =      4   k-points in BZ     NKDIM =      4   number of bands    NBANDS=     14
   number of dos      NEDOS =    301   number of ions     NIONS =      2
   non local maximal  LDIM  =      4   non local SUM 2l+1 LMDIM =      8
   total plane-waves  NPLWV =   8640
   max r-space proj   IRMAX =   1295   max aug-charges    IRDMAX=  12939
   dimension x,y,z NGX =    12 NGY =   12 NGZ =   60
   dimension x,y,z NGXF=    24 NGYF=   24 NGZF=  120
   support grid    NGXF=    48 NGYF=   48 NGZF=  240
   ions per type =               2
   NGX,Y,Z   is equivalent  to a cutoff of   8.04,  8.04,  8.31 a.u.
   NGXF,Y,Z  is equivalent  to a cutoff of  16.08, 16.08, 16.62 a.u.

 SYSTEM =  phonon                                  
 POSCAR =  graphite                                

 Startparameter for this run:
   NWRITE =      3    write-flag & timer
   PREC   = n         normal or accurate (medium, high low for compatibility)
   ISTART =      0    job   : 0-new  1-cont  2-samecut
   ICHARG =      2    charge: 1-file 2-atom 10-const
   ISPIN  =      1    spin polarized calculation?
   LNONCOLLINEAR =      F non collinear calculations
   LSORBIT =      F    spin-orbit coupling
   INIWAV =      1    electr: 0-lowe 1-rand  2-diag
   LASPH  =      F    aspherical Exc in radial PAW
   METAGGA=      F    non-selfconsistent MetaGGA calc.

 Electronic Relaxation 1
   ENCUT  =  400.0 eV  29.40 Ry    5.42 a.u.   4.05  4.05 19.57*2*pi/ulx,y,z
   ENINI  =  400.0     initial cutoff
   ENAUG  =  644.9 eV  augmentation charge cutoff
   NELM   =     60;   NELMIN=  4; NELMDL=-12     # of ELM steps 
   EDIFF  = 0.1E-03   stopping-criterion for ELM
   LREAL  =      T    real-space projection
   NLSPLINE    = F    spline interpolate recip. space projectors
   LCOMPAT=      F    compatible to vasp.4.4
   GGA_COMPAT  = T    GGA compatible to vasp.4.4-vasp.4.6
   LMAXPAW     = -100 max onsite density
   LMAXMIX     =    2 max onsite mixed and CHGCAR
   VOSKOWN=      0    Vosko Wilk Nusair interpolation
   ROPT   =   -0.00050
 Ionic relaxation
   EDIFFG = 0.1E-02   stopping-criterion for IOM
   NSW    =     61    number of steps for IOM
   NBLOCK =      1;   KBLOCK =     61    inner block; outer block 
   IBRION =      5    ionic relax: 0-MD 1-quasi-New 2-CG
   NFREE  =      2    steps in history (QN), initial steepest desc. (CG)
   ISIF   =      2    stress and relaxation
   IWAVPR =     11    prediction:  0-non 1-charg 2-wave 3-comb
   ISYM   =      2    0-nonsym 1-usesym 2-fastsym
   LCORR  =      T    Harris-Foulkes like correction to forces

   POTIM  = 0.0100    time-step for ionic-motion
   TEIN   =    0.0    initial temperature
   TEBEG  =    0.0;   TEEND  =   0.0 temperature during run
   SMASS  =  -3.00    Nose mass-parameter (am)
   estimated Nose-frequenzy (Omega)   =  0.10E-29 period in steps =****** mass=  -0.141E-27a.u.
   SCALEE = 1.0000    scale energy and forces
   NPACO  =    256;   APACO  = 16.0  distance and # of slots for P.C.
   PSTRESS=    0.0 pullay stress

  Mass of Ions in am
   POMASS =  12.01
  Ionic Valenz
   ZVAL   =   4.00
  Atomic Wigner-Seitz radii
   RWIGS  =  -1.00
  virtual crystal weights 
   VCA    =   1.00
   NELECT =       8.0000    total number of electrons
   NUPDOWN=      -1.0000    fix difference up-down

 DOS related values:
   EMIN   =  10.00;   EMAX   =-10.00  energy-range for DOS
   EFERMI =   0.00
   ISMEAR =     1;   SIGMA  =   0.20  broadening in eV -4-tet -1-fermi 0-gaus

 Electronic relaxation 2 (details)
   IALGO  =     48    algorithm
   LDIAG  =      T    sub-space diagonalisation (order eigenvalues)
   LSUBROT=      F    optimize rotation matrix (better conditioning)
   TURBO    =      0    0=normal 1=particle mesh
   IRESTART =      0    0=no restart 2=restart with 2 vectors
   NREBOOT  =      0    no. of reboots
   NMIN     =      0    reboot dimension
   EREF     =   0.00    reference energy to select bands
   IMIX   =      4    mixing-type and parameters
     AMIX     =   0.40;   BMIX     =  1.00
     AMIX_MAG =   1.60;   BMIX_MAG =  1.00
     AMIN     =   0.10
     WC   =   100.;   INIMIX=   1;  MIXPRE=   1;  MAXMIX= -45

 Intra band minimization:
   WEIMIN = 0.0010     energy-eigenvalue tresh-hold
   EBREAK =  0.18E-05  absolut break condition
   DEPER  =   0.30     relativ break condition  

   TIME   =   0.40     timestep for ELM

  volume/ion in A,a.u.               =      32.01       216.01
  Fermi-wavevector in a.u.,A,eV,Ry     =   0.818475  1.546694  9.114571  0.669902
  Thomas-Fermi vector in A             =   1.929109
 
 Write flags
   LWAVE        =      F    write WAVECAR
   LDOWNSAMPLE  =      F    k-point downsampling of WAVECAR
   LCHARG       =      F    write CHGCAR
   LVTOT        =      F    write LOCPOT, total local potential
   LVHAR        =      F    write LOCPOT, Hartree potential only
   LELF         =      F    write electronic localiz. function (ELF)
   LORBIT       =      0    0 simple, 1 ext, 2 COOP (PROOUT), +10 PAW based schemes


 Dipole corrections
   LMONO  =      F    monopole corrections only (constant potential shift)
   LDIPOL =      F    correct potential (dipole corrections)
   IDIPOL =      0    1-x, 2-y, 3-z, 4-all directions 
   EPSILON=  1.0000000 bulk dielectric constant

 Exchange correlation treatment:
   GGA     =    --    GGA type
   LEXCH   =     8    internal setting for exchange type
   VOSKOWN=      0    Vosko Wilk Nusair interpolation
   LHFCALC =     F    Hartree Fock is set to
   LHFONE  =     F    Hartree Fock one center treatment
   AEXX    =    0.0000 exact exchange contribution

 Linear response parameters
   LEPSILON=     F    determine dielectric tensor
   LRPA    =     F    only Hartree local field effects (RPA)
   LNABLA  =     F    use nabla operator in PAW spheres
   LVEL    =     F    velocity operator in full k-point grid
   LINTERFAST=   F  fast interpolation
   KINTER  =     0    interpolate to denser k-point grid
   CSHIFT  =0.1000    complex shift for real part using Kramers Kronig
   OMEGAMAX=  -1.0    maximum frequency
   DEG_THRESHOLD= 0.2000000E-02 threshold for treating states as degnerate
   RTIME   =   -0.100 relaxation time in fs
  (WPLASMAI=    0.000 imaginary part of plasma frequency in eV, 0.658/RTIME)
   DFIELD  = 0.0000000 0.0000000 0.0000000 field for delta impulse in time
 
 Orbital magnetization related:
   ORBITALMAG=     F  switch on orbital magnetization
   LCHIMAG   =     F  perturbation theory with respect to B field
   DQ        =  0.001000  dq finite difference perturbation B field
   LLRAUG    =     F  two centre corrections for induced B field



--------------------------------------------------------------------------------------------------------


 finite differences
 charge density and potential will be updated during run
 non-spin polarized calculation
 RMM-DIIS sequential band-by-band
 perform sub-space diagonalisation
    before iterative eigenvector-optimisation
 modified Broyden-mixing scheme, WC =      100.0
 initial mixing is a Kerker type mixing with AMIX =  0.4000 and BMIX =      1.0000
 Hartree-type preconditioning will be used
 using additional bands           10
 real space projection scheme for non local part
 calculate Harris-corrections to forces 
   (improved forces if not selfconsistent)
 use gradient corrections 
 use of overlap-Matrix (Vanderbilt PP)
 Methfessel and Paxton  Order N= 1 SIGMA  =   0.20


--------------------------------------------------------------------------------------------------------


  energy-cutoff  :      400.00
  volume of cell :       64.02
      direct lattice vectors                 reciprocal lattice vectors
     2.481948769  0.000000000  0.000000000     0.402909203  0.232619737 -0.000000000
    -1.240974385  2.149430685  0.000000000     0.000000000  0.465239473 -0.000000000
     0.000000000  0.000000000 12.000000000     0.000000000  0.000000000  0.083333333

  length of vectors
     2.481948769  2.481948769 12.000000000     0.465239473  0.465239473  0.083333333


 
 k-points in units of 2pi/SCALE and weight: K-Points                                
   0.00000000  0.00000000  0.00000000       0.111
   0.13430307  0.07753991 -0.00000000       0.444
   0.13430307  0.23261974 -0.00000000       0.222
  -0.13430307  0.07753991  0.00000000       0.222
 
 k-points in reciprocal lattice and weights: K-Points                                
   0.00000000  0.00000000  0.00000000       0.111
   0.33333333  0.00000000  0.00000000       0.444
   0.33333333  0.33333333  0.00000000       0.222
  -0.33333333  0.33333333  0.00000000       0.222
 
 position of ions in fractional coordinates (direct lattice) 
   0.00000000  0.00000000  0.14167000
   0.33333001  0.66667002  0.14167000
 
 position of ions in cartesian coordinates  (Angst):
   0.00000000  0.00000000  1.70004005
  -0.00001243  1.43296101  1.70004005
 


--------------------------------------------------------------------------------------------------------


 k-point  1 :   0.0000 0.0000 0.0000  plane waves:    1125
 k-point  2 :   0.3333 0.0000 0.0000  plane waves:    1167
 k-point  3 :   0.3333 0.3333 0.0000  plane waves:    1146
 k-point  4 :  -0.3333 0.3333 0.0000  plane waves:    1167

 maximum and minimum number of plane-waves per node :      1167     1125

 maximum number of plane-waves:      1167
 maximum index in each direction: 
   IXMAX=    4   IYMAX=    4   IZMAX=   19
   IXMIN=   -4   IYMIN=   -4   IZMIN=  -19


 serial   3D FFT for wavefunctions
 parallel 3D FFT for charge:
    minimum data exchange during FFTs selected (reduces bandwidth)


 total amount of memory used by VASP MPI-rank0    32799. kBytes
=======================================================================

   base      :      30000. kBytes
   nonlr-proj:        208. kBytes
   fftplans  :       1526. kBytes
   grid      :        907. kBytes
   one-center:          6. kBytes
   wavefun   :        152. kBytes
 
     INWAV:  cpu time    0.0000: real time    0.0000
 Broyden mixing: mesh for mixing (old mesh)
   NGX =  9   NGY =  9   NGZ = 39
  (NGX  = 24   NGY  = 24   NGZ  =120)
  gives a total of   3159 points

 initial charge density was supplied:
 charge density of overlapping atoms calculated
 number of electron       8.0000000 magnetization 
 keeping initial charge density in first step


--------------------------------------------------------------------------------------------------------


 Maximum index for non-local projection operator         1188
 Maximum index for augmentation-charges         1855 (set IRDMAX)


--------------------------------------------------------------------------------------------------------


 First call to EWALD:  gamma=   0.443
 Maximum number of real-space cells 5x 5x 1
 Maximum number of reciprocal cells 2x 2x 7

    FEWALD:  cpu time    0.0020: real time    0.0014


----------------------------------------- Iteration    1(   1)  ---------------------------------------


    POTLOK:  cpu time    0.0050: real time    0.0048
    SETDIJ:  cpu time    0.0030: real time    0.0026
    EDDIAG:  cpu time    0.0140: real time    0.0361
  RMM-DIIS:  cpu time    0.0250: real time    0.1849
    ORTHCH:  cpu time    0.0060: real time    0.0066
       DOS:  cpu time    0.0010: real time    0.0002
    --------------------------------------------
      LOOP:  cpu time    0.0550: real time    0.2379

 eigenvalue-minimisations  :    56
 total energy-change (2. order) : 0.7658954E+02  (-0.1284687E+03)
 number of electron       8.0000000 magnetization 
 augmentation part        8.0000000 magnetization 

 Free energy of the ion-electron system (eV)
  ---------------------------------------------------
  alpha Z        PSCENC =         5.09113229
  Ewald energy   TEWEN  =       551.13459490
  -Hartree energ DENC   =      -777.05864006
  -exchange      EXHF   =         0.00000000
  -V(xc)+E(xc)   XCENC  =        27.46714398
  PAW double counting   =        75.66288619      -77.96384553
  entropy T*S    EENTRO =        -0.01253755
  eigenvalues    EBANDS =       -21.98564055
  atomic energy  EATOM  =       294.25444774
  Solvation  Ediel_sol  =         0.00000000
  ---------------------------------------------------
  free energy    TOTEN  =        76.58954143 eV

  energy without entropy =       76.60207897  energy(sigma->0) =       76.59372061


--------------------------------------------------------------------------------------------------------




 average (electrostatic) potential at core
  the test charge radii are     0.6991
  (the norm of the test charge is              1.0000)
       1 -62.8965       2 -62.8965
 
 
 
 E-fermi :   6.3702     XC(G=0):  -3.9366     alpha+bet : -3.1363


 k-point     1 :       0.0000    0.0000    0.0000
  band No.  band energies     occupation 
      1     -21.3658      2.00000
      2      -4.2420      2.00000
      3       2.1859      2.00000
      4      -0.4898      2.00000
      5       0.8937      2.00000
      6       8.9983     -0.00000
      7      11.8453      0.00000
      8      20.0902      0.00000
      9      30.7074      0.00000
     10      30.3395      0.00000
     11      36.3618      0.00000
     12      36.4971      0.00000
     13      36.5390      0.00000
     14      38.8263      0.00000

 k-point     2 :       0.3333    0.0000    0.0000
  band No.  band energies     occupation 
      1     -20.2853      2.00000
      2       2.0614      2.00000
      3       4.0963      2.00000
      4       2.6290      2.00000
      5       7.8503     -0.00000
      6       9.1912     -0.00000
      7      16.4248      0.00000
      8      18.0100      0.00000
      9      19.7106      0.00000
     10      29.2710      0.00000
     11      26.0670      0.00000
     12      33.0253      0.00000
     13      36.7639      0.00000
     14      43.8211      0.00000

 k-point     3 :       0.3333    0.3333    0.0000
  band No.  band energies     occupation 
      1      -8.1077      2.00000
      2      -1.4395      2.00000
      3       4.3703      2.00000
      4       7.9089     -0.00000
      5      11.5499     -0.00000
      6      15.3422      0.00000
      7      11.9726      0.00000
      8      15.5051      0.00000
      9      21.8856      0.00000
     10      22.4849      0.00000
     11      27.6814      0.00000
     12      32.4876      0.00000
     13      33.4608      0.00000
     14      32.9456      0.00000

 k-point     4 :      -0.3333    0.3333    0.0000
  band No.  band energies     occupation 
      1     -20.1706      2.00000
      2       0.4837      2.00000
      3       3.3894      2.00000
      4       3.3277      2.00000
      5       6.3702      1.00000
      6      11.8326      0.00000
      7      14.8445      0.00000
      8      18.9767      0.00000
      9      22.1720      0.00000
     10      23.9727      0.00000
     11      25.2991      0.00000
     12      25.0685      0.00000
     13      38.5102      0.00000
     14      42.0867      0.00000


--------------------------------------------------------------------------------------------------------


 soft charge-density along one line, spin component           1
         0         1         2         3         4         5         6         7         8         9
 total charge-density along one line
 
 pseudopotential strength for first ion, spin component:           1
 10.479   0.027  -0.000   0.000   0.000   0.000  -0.000  -0.000
  0.027  -0.001   0.000  -0.000  -0.000   0.000  -0.000  -0.000
 -0.000   0.000  -4.631   0.000   0.000  -0.003   0.000   0.000
  0.000  -0.000   0.000  -4.598   0.000   0.000   0.002   0.000
  0.000  -0.000   0.000   0.000  -4.631   0.000   0.000  -0.003
  0.000   0.000  -0.003   0.000   0.000  -0.776   0.000   0.000
 -0.000  -0.000   0.000   0.002   0.000   0.000  -0.775   0.000
 -0.000  -0.000   0.000   0.000  -0.003   0.000   0.000  -0.776
 total augmentation occupancy for first ion, spin component:           1
  2.000   0.000   0.000   0.000   0.000   0.000   0.000   0.000
  0.000   0.000   0.000   0.000   0.000   0.000   0.000   0.000
  0.000   0.000   0.667   0.000   0.000   0.000   0.000   0.000
  0.000   0.000   0.000   0.667   0.000   0.000   0.000   0.000
  0.000   0.000   0.000   0.000   0.667   0.000   0.000   0.000
  0.000   0.000   0.000   0.000   0.000   0.000   0.000   0.000
  0.000   0.000   0.000   0.000   0.000   0.000   0.000   0.000
  0.000   0.000   0.000   0.000   0.000   0.000   0.000   0.000


----------------------------------------- Iteration    1(   2)  ---------------------------------------


    EDDIAG:  cpu time    0.0130: real time    0.0250
  RMM-DIIS:  cpu time    0.0250: real time    0.1800
    ORTHCH:  cpu time    0.0190: real time    0.0190
       DOS:  cpu time    0.0000: real time    0.0002
    --------------------------------------------
      LOOP:  cpu time    0.0570: real time    0.2260

 eigenvalue-minimisations  :    56
 total energy-change (2. order) :-0.6118022E+02  (-0.5577178E+02)
 number of electron       8.0000000 magnetization 
 augmentation part        8.0000000 magnetization 

 Free energy of the ion-electron system (eV)
  ---------------------------------------------------
  alpha Z        PSCENC =         5.09113229
  Ewald energy   TEWEN  =       551.13459490
  -Hartree energ DENC   =      -777.05864006
  -exchange      EXHF   =         0.00000000
  -V(xc)+E(xc)   XCENC  =        27.46714398
  PAW double counting   =        75.66288619      -77.96384553
  entropy T*S    EENTRO =         0.01351041
  eigenvalues    EBANDS =       -83.19191035
  atomic energy  EATOM  =       294.25444774
  Solvation  Ediel_sol  =         0.00000000
  ---------------------------------------------------
  free energy    TOTEN  =        15.40931958 eV

  energy without entropy =       15.39580917  energy(sigma->0) =       15.40481611


--------------------------------------------------------------------------------------------------------




 average (electrostatic) potential at core
  the test charge radii are     0.6991
  (the norm of the test charge is              1.0000)
       1 -62.8965       2 -62.8965
 
 
 
 E-fermi :  -1.6491     XC(G=0):  -3.9366     alpha+bet : -3.1363


 k-point     1 :       0.0000    0.0000    0.0000
  band No.  band energies     occupation 
      1     -24.3552      2.00000
      2      -9.8289      2.00000
      3       1.5703     -0.00000
      4       1.9322     -0.00000
      5       3.2574     -0.00000
      6       6.9392      0.00000
      7       6.0449      0.00000
      8       8.3434      0.00000
      9       6.9944      0.00000
     10       7.5634      0.00000
     11      15.7766      0.00000
     12      19.9632      0.00000
     13      22.4078      0.00000
     14      28.2434      0.00000

 k-point     2 :       0.3333    0.0000    0.0000
  band No.  band energies     occupation 
      1     -22.1973      2.00000
      2      -7.8725      2.00000
      3      -5.1569      2.00000
      4      -1.8370      2.03528
      5       3.0083     -0.00000
      6      -3.7383      2.00000
      7       0.5129     -0.00000
      8       8.3864      0.00000
      9       5.6524      0.00000
     10       7.0583      0.00000
     11      13.3738      0.00000
     12      20.0589      0.00000
     13      22.7645      0.00000
     14      22.8611      0.00000

 k-point     3 :       0.3333    0.3333    0.0000
  band No.  band energies     occupation 
      1     -17.1706      2.00000
      2     -16.6477      2.00000
      3     -12.9087      2.00000
      4      -1.3971     -0.07055
      5       1.3760     -0.00000
      6       9.5328      0.00000
      7      11.4706      0.00000
      8      14.4102      0.00000
      9      13.2793      0.00000
     10      15.2732      0.00000
     11      14.5135      0.00000
     12      16.1630      0.00000
     13      17.9884      0.00000
     14      21.7878      0.00000

 k-point     4 :      -0.3333    0.3333    0.0000
  band No.  band energies     occupation 
      1     -22.0953      2.00000
      2      -7.4568      2.00000
      3      -9.0880      2.00000
      4      -3.1031      2.00000
      5       1.2374     -0.00000
      6       3.0751     -0.00000
      7       3.2975     -0.00000
      8       4.6553      0.00000
      9       5.8217      0.00000
     10      13.6107      0.00000
     11      13.4364      0.00000
     12      13.3156      0.00000
     13      19.9894      0.00000
     14      24.3899      0.00000


--------------------------------------------------------------------------------------------------------


 soft charge-density along one line, spin component           1
         0         1         2         3         4         5         6         7         8         9
 total charge-density along one line
 
 pseudopotential strength for first ion, spin component:           1
 10.479   0.027  -0.000   0.000   0.000   0.000  -0.000  -0.000
  0.027  -0.001   0.000  -0.000  -0.000   0.000  -0.000  -0.000
 -0.000   0.000  -4.631   0.000   0.000  -0.003   0.000   0.000
  0.000  -0.000   0.000  -4.598   0.000   0.000   0.002   0.000
  0.000  -0.000   0.000   0.000  -4.631   0.000   0.000  -0.003
  0.000   0.000  -0.003   0.000   0.000  -0.776   0.000   0.000
 -0.000  -0.000   0.000   0.002   0.000   0.000  -0.775   0.000
 -0.000  -0.000   0.000   0.000  -0.003   0.000   0.000  -0.776
 total augmentation occupancy for first ion, spin component:           1
  2.000   0.000   0.000   0.000   0.000   0.000   0.000   0.000
  0.000   0.000   0.000   0.000   0.000   0.000   0.000   0.000
  0.000   0.000   0.667   0.000   0.000   0.000   0.000   0.000
  0.000   0.000   0.000   0.667   0.000   0.000   0.000   0.000
  0.000   0.000   0.000   0.000   0.667   0.000   0.000   0.000
  0.000   0.000   0.000   0.000   0.000   0.000   0.000   0.000
  0.000   0.000   0.000   0.000   0.000   0.000   0.000   0.000
  0.000   0.000   0.000   0.000   0.000   0.000   0.000   0.000


----------------------------------------- Iteration    1(   3)  ---------------------------------------


    EDDIAG:  cpu time    0.0130: real time    0.0237
  RMM-DIIS:  cpu time    0.0280: real time    0.1929
    ORTHCH:  cpu time    0.0070: real time    0.0078
       DOS:  cpu time    0.0010: real time    0.0003
    --------------------------------------------
      LOOP:  cpu time    0.0500: real time    0.2270

 eigenvalue-minimisations  :    56
 total energy-change (2. order) :-0.2729669E+02  (-0.1985695E+02)
 number of electron       8.0000000 magnetization 
 augmentation part        8.0000000 magnetization 

 Free energy of the ion-electron system (eV)
  ---------------------------------------------------
  alpha Z        PSCENC =         5.09113229
  Ewald energy   TEWEN  =       551.13459490
  -Hartree energ DENC   =      -777.05864006
  -exchange      EXHF   =         0.00000000
  -V(xc)+E(xc)   XCENC  =        27.46714398
  PAW double counting   =        75.66288619      -77.96384553
  entropy T*S    EENTRO =        -0.00479891
  eigenvalues    EBANDS =      -110.47029305
  atomic energy  EATOM  =       294.25444774
  Solvation  Ediel_sol  =         0.00000000
  ---------------------------------------------------
  free energy    TOTEN  =       -11.88737244 eV

  energy without entropy =      -11.88257353  energy(sigma->0) =      -11.88577281


--------------------------------------------------------------------------------------------------------




 average (electrostatic) potential at core
  the test charge radii are     0.6991
  (the norm of the test charge is              1.0000)
       1 -62.8965       2 -62.8965
 
 
 
 E-fermi :  -3.1309     XC(G=0):  -3.9366     alpha+bet : -3.1363


 k-point     1 :       0.0000    0.0000    0.0000
  band No.  band energies     occupation 
      1     -24.9346      2.00000
      2     -11.5898      2.00000
      3      -4.7498      2.00000
      4      -1.9918     -0.00000
      5       0.9690     -0.00000
      6       1.6725     -0.00000
      7      -3.2255      1.71011
      8       5.6245      0.00000
      9       4.4820      0.00000
     10       9.0940      0.00000
     11       6.4695      0.00000
     12      12.4726      0.00000
     13      18.3086      0.00000
     14      24.1419      0.00000

 k-point     2 :       0.3333    0.0000    0.0000
  band No.  band energies     occupation 
      1     -22.4613      2.00000
      2     -14.3573      2.00000
      3     -10.0100      2.00000
      4     -10.0557      2.00000
      5       4.7757      0.00000
      6       5.6675      0.00000
      7       6.2458      0.00000
      8       5.9534      0.00000
      9       8.3523      0.00000
     10       9.7002      0.00000
     11      12.8098      0.00000
     12      14.3404      0.00000
     13      17.8473      0.00000
     14      20.3994      0.00000

 k-point     3 :       0.3333    0.3333    0.0000
  band No.  band energies     occupation 
      1     -18.2282      2.00000
      2     -18.1159      2.00000
      3     -15.5278      2.00000
      4      -3.7711      2.00006
      5      -3.0075      0.14489
      6       8.2675      0.00000
      7      11.9525      0.00000
      8      13.1756      0.00000
      9      13.7757      0.00000
     10      13.6812      0.00000
     11      12.8396      0.00000
     12      15.6730      0.00000
     13      15.8295      0.00000
     14      18.7361      0.00000

 k-point     4 :      -0.3333    0.3333    0.0000
  band No.  band energies     occupation 
      1     -22.4187      2.00000
      2     -14.6990      2.00000
      3      -8.9029      2.00000
      4     -10.8919      2.00000
      5       4.5984      0.00000
      6       6.3252      0.00000
      7       5.5008      0.00000
      8       5.4498      0.00000
      9       7.2909      0.00000
     10       9.4922      0.00000
     11      16.0216      0.00000
     12      14.9186      0.00000
     13      16.2264      0.00000
     14      19.6634      0.00000


--------------------------------------------------------------------------------------------------------


 soft charge-density along one line, spin component           1
         0         1         2         3         4         5         6         7         8         9
 total charge-density along one line
 
 pseudopotential strength for first ion, spin component:           1
 10.479   0.027  -0.000   0.000   0.000   0.000  -0.000  -0.000
  0.027  -0.001   0.000  -0.000  -0.000   0.000  -0.000  -0.000
 -0.000   0.000  -4.631   0.000   0.000  -0.003   0.000   0.000
  0.000  -0.000   0.000  -4.598   0.000   0.000   0.002   0.000
  0.000  -0.000   0.000   0.000  -4.631   0.000   0.000  -0.003
  0.000   0.000  -0.003   0.000   0.000  -0.776   0.000   0.000
 -0.000  -0.000   0.000   0.002   0.000   0.000  -0.775   0.000
 -0.000  -0.000   0.000   0.000  -0.003   0.000   0.000  -0.776
 total augmentation occupancy for first ion, spin component:           1
  2.000   0.000   0.000   0.000   0.000   0.000   0.000   0.000
  0.000   0.000   0.000   0.000   0.000   0.000   0.000   0.000
  0.000   0.000   0.667   0.000   0.000   0.000   0.000   0.000
  0.000   0.000   0.000   0.667   0.000   0.000   0.000   0.000
  0.000   0.000   0.000   0.000   0.667   0.000   0.000   0.000
  0.000   0.000   0.000   0.000   0.000   0.000   0.000   0.000
  0.000   0.000   0.000   0.000   0.000   0.000   0.000   0.000
  0.000   0.000   0.000   0.000   0.000   0.000   0.000   0.000


----------------------------------------- Iteration    1(   4)  ---------------------------------------


    EDDIAG:  cpu time    0.0140: real time    0.0259
  RMM-DIIS:  cpu time    0.0230: real time    0.1889
    ORTHCH:  cpu time    0.0070: real time    0.0069
       DOS:  cpu time    0.0000: real time    0.0002
    --------------------------------------------
      LOOP:  cpu time    0.0440: real time    0.2241

 eigenvalue-minimisations  :    56
 total energy-change (2. order) :-0.5926839E+01  (-0.3619845E+01)
 number of electron       8.0000000 magnetization 
 augmentation part        8.0000000 magnetization 

 Free energy of the ion-electron system (eV)
  ---------------------------------------------------
  alpha Z        PSCENC =         5.09113229
  Ewald energy   TEWEN  =       551.13459490
  -Hartree energ DENC   =      -777.05864006
  -exchange      EXHF   =         0.00000000
  -V(xc)+E(xc)   XCENC  =        27.46714398
  PAW double counting   =        75.66288619      -77.96384553
  entropy T*S    EENTRO =        -0.00388499
  eigenvalues    EBANDS =      -116.39804616
  atomic energy  EATOM  =       294.25444774
  Solvation  Ediel_sol  =         0.00000000
  ---------------------------------------------------
  free energy    TOTEN  =       -17.81421163 eV

  energy without entropy =      -17.81032664  energy(sigma->0) =      -17.81291663


--------------------------------------------------------------------------------------------------------




 average (electrostatic) potential at core
  the test charge radii are     0.6991
  (the norm of the test charge is              1.0000)
       1 -62.8965       2 -62.8965
 
 
 
 E-fermi :  -4.5808     XC(G=0):  -3.9366     alpha+bet : -3.1363


 k-point     1 :       0.0000    0.0000    0.0000
  band No.  band energies     occupation 
      1     -25.0072      2.00000
      2     -12.0561      2.00000
      3      -9.3296      2.00000
      4      -8.7178      2.00000
      5       1.2649      0.00000
      6       2.5833      0.00000
      7       3.6314      0.00000
      8       4.3533      0.00000
      9       6.2281      0.00000
     10       7.5291      0.00000
     11       9.2783      0.00000
     12      11.3092      0.00000
     13      15.2906      0.00000
     14      18.2871      0.00000

 k-point     2 :       0.3333    0.0000    0.0000
  band No.  band energies     occupation 
      1     -22.5229      2.00000
      2     -15.3367      2.00000
      3     -11.8925      2.00000
      4      -9.1407      2.00000
      5       2.1321      0.00000
      6       3.8611      0.00000
      7       3.4042      0.00000
      8       6.8426      0.00000
      9       6.2437      0.00000
     10       9.9560      0.00000
     11      10.9512      0.00000
     12      14.5018      0.00000
     13      16.7941      0.00000
     14      17.1737      0.00000

 k-point     3 :       0.3333    0.3333    0.0000
  band No.  band energies     occupation 
      1     -18.4149      2.00000
      2     -18.3630      2.00000
      3     -16.1803      2.00000
      4      -4.7050      1.85870
      5      -4.4565      0.14130
      6       7.5725      0.00000
      7      10.1724      0.00000
      8      10.9949      0.00000
      9      12.1085      0.00000
     10      13.4456      0.00000
     11      13.9389      0.00000
     12      14.0817      0.00000
     13      15.3835      0.00000
     14      16.4778      0.00000

 k-point     4 :      -0.3333    0.3333    0.0000
  band No.  band energies     occupation 
      1     -22.5087      2.00000
      2     -15.3865      2.00000
      3     -11.8594      2.00000
      4      -9.1544      2.00000
      5       0.8713     -0.00000
      6       4.6105      0.00000
      7       3.6341      0.00000
      8       5.8264      0.00000
      9       6.9856      0.00000
     10      10.7633      0.00000
     11      11.9468      0.00000
     12      16.0990      0.00000
     13      16.6834      0.00000
     14      17.9384      0.00000


--------------------------------------------------------------------------------------------------------


 soft charge-density along one line, spin component           1
         0         1         2         3         4         5         6         7         8         9
 total charge-density along one line
 
 pseudopotential strength for first ion, spin component:           1
 10.479   0.027  -0.000   0.000   0.000   0.000  -0.000  -0.000
  0.027  -0.001   0.000  -0.000  -0.000   0.000  -0.000  -0.000
 -0.000   0.000  -4.631   0.000   0.000  -0.003   0.000   0.000
  0.000  -0.000   0.000  -4.598   0.000   0.000   0.002   0.000
  0.000  -0.000   0.000   0.000  -4.631   0.000   0.000  -0.003
  0.000   0.000  -0.003   0.000   0.000  -0.776   0.000   0.000
 -0.000  -0.000   0.000   0.002   0.000   0.000  -0.775   0.000
 -0.000  -0.000   0.000   0.000  -0.003   0.000   0.000  -0.776
 total augmentation occupancy for first ion, spin component:           1
  2.000   0.000   0.000   0.000   0.000   0.000   0.000   0.000
  0.000   0.000   0.000   0.000   0.000   0.000   0.000   0.000
  0.000   0.000   0.667   0.000   0.000   0.000   0.000   0.000
  0.000   0.000   0.000   0.667   0.000   0.000   0.000   0.000
  0.000   0.000   0.000   0.000   0.667   0.000   0.000   0.000
  0.000   0.000   0.000   0.000   0.000   0.000   0.000   0.000
  0.000   0.000   0.000   0.000   0.000   0.000   0.000   0.000
  0.000   0.000   0.000   0.000   0.000   0.000   0.000   0.000


----------------------------------------- Iteration    1(   5)  ---------------------------------------


    EDDIAG:  cpu time    0.0250: real time    0.0354
  RMM-DIIS:  cpu time    0.0210: real time    0.1662
    ORTHCH:  cpu time    0.0210: real time    0.0215
       DOS:  cpu time    0.0010: real time    0.0006
    --------------------------------------------
      LOOP:  cpu time    0.0690: real time    0.2260

 eigenvalue-minimisations  :    56
 total energy-change (2. order) :-0.9991489E+00  (-0.8415991E+00)
 number of electron       8.0000000 magnetization 
 augmentation part        8.0000000 magnetization 

 Free energy of the ion-electron system (eV)
  ---------------------------------------------------
  alpha Z        PSCENC =         5.09113229
  Ewald energy   TEWEN  =       551.13459490
  -Hartree energ DENC   =      -777.05864006
  -exchange      EXHF   =         0.00000000
  -V(xc)+E(xc)   XCENC  =        27.46714398
  PAW double counting   =        75.66288619      -77.96384553
  entropy T*S    EENTRO =        -0.02258343
  eigenvalues    EBANDS =      -117.37849660
  atomic energy  EATOM  =       294.25444774
  Solvation  Ediel_sol  =         0.00000000
  ---------------------------------------------------
  free energy    TOTEN  =       -18.81336052 eV

  energy without entropy =      -18.79077708  energy(sigma->0) =      -18.80583270


--------------------------------------------------------------------------------------------------------




 average (electrostatic) potential at core
  the test charge radii are     0.6991
  (the norm of the test charge is              1.0000)
       1 -62.8965       2 -62.8965
 
 
 
 E-fermi :  -4.8972     XC(G=0):  -3.9366     alpha+bet : -3.1363


 k-point     1 :       0.0000    0.0000    0.0000
  band No.  band energies     occupation 
      1     -25.0193      2.00000
      2     -12.1411      2.00000
      3      -9.4541      2.00000
      4      -9.1962      2.00000
      5       1.2683      0.00000
      6       2.5866      0.00000
      7       3.6264      0.00000
      8       3.5761      0.00000
      9       5.5709      0.00000
     10       6.4958      0.00000
     11       6.5708      0.00000
     12      10.2368      0.00000
     13      13.4674      0.00000
     14      14.9063      0.00000

 k-point     2 :       0.3333    0.0000    0.0000
  band No.  band energies     occupation 
      1     -22.5434      2.00000
      2     -15.5270      2.00000
      3     -11.9970      2.00000
      4      -9.2997      2.00000
      5      -0.0225     -0.00000
      6       2.2322      0.00000
      7       4.7374      0.00000
      8       6.0810      0.00000
      9       7.1981      0.00000
     10       9.7936      0.00000
     11      11.2329      0.00000
     12      13.7368      0.00000
     13      15.2655      0.00000
     14      16.1288      0.00000

 k-point     3 :       0.3333    0.3333    0.0000
  band No.  band energies     occupation 
      1     -18.4591      2.00000
      2     -18.4400      2.00000
      3     -16.2966      2.00000
      4      -4.9342      1.30661
      5      -4.8603      0.69339
      6       7.3470      0.00000
      7       9.0230      0.00000
      8      10.3335      0.00000
      9      10.7400      0.00000
     10      13.2751      0.00000
     11      13.6174      0.00000
     12      14.0392      0.00000
     13      14.8038      0.00000
     14      15.2506      0.00000

 k-point     4 :      -0.3333    0.3333    0.0000
  band No.  band energies     occupation 
      1     -22.5384      2.00000
      2     -15.5438      2.00000
      3     -11.9795      2.00000
      4      -9.2960      2.00000
      5       0.0963     -0.00000
      6       2.2431      0.00000
      7       4.7383      0.00000
      8       6.0685      0.00000
      9       7.2034      0.00000
     10      10.3492      0.00000
     11      11.3053      0.00000
     12      15.1815      0.00000
     13      15.5262      0.00000
     14      16.8423      0.00000


--------------------------------------------------------------------------------------------------------


 soft charge-density along one line, spin component           1
         0         1         2         3         4         5         6         7         8         9
 total charge-density along one line
 
 pseudopotential strength for first ion, spin component:           1
 10.479   0.027  -0.000   0.000   0.000   0.000  -0.000  -0.000
  0.027  -0.001   0.000  -0.000  -0.000   0.000  -0.000  -0.000
 -0.000   0.000  -4.631   0.000   0.000  -0.003   0.000   0.000
  0.000  -0.000   0.000  -4.598   0.000   0.000   0.002   0.000
  0.000  -0.000   0.000   0.000  -4.631   0.000   0.000  -0.003
  0.000   0.000  -0.003   0.000   0.000  -0.776   0.000   0.000
 -0.000  -0.000   0.000   0.002   0.000   0.000  -0.775   0.000
 -0.000  -0.000   0.000   0.000  -0.003   0.000   0.000  -0.776
 total augmentation occupancy for first ion, spin component:           1
  2.000   0.000   0.000   0.000   0.000   0.000   0.000   0.000
  0.000   0.000   0.000   0.000   0.000   0.000   0.000   0.000
  0.000   0.000   0.667   0.000   0.000   0.000   0.000   0.000
  0.000   0.000   0.000   0.667   0.000   0.000   0.000   0.000
  0.000   0.000   0.000   0.000   0.667   0.000   0.000   0.000
  0.000   0.000   0.000   0.000   0.000   0.000   0.000   0.000
  0.000   0.000   0.000   0.000   0.000   0.000   0.000   0.000
  0.000   0.000   0.000   0.000   0.000   0.000   0.000   0.000


----------------------------------------- Iteration    1(   6)  ---------------------------------------


    EDDIAG:  cpu time    0.0160: real time    0.0279
  RMM-DIIS:  cpu time    0.0240: real time    0.1883
    ORTHCH:  cpu time    0.0170: real time    0.0169
       DOS:  cpu time    0.0000: real time    0.0002
    --------------------------------------------
      LOOP:  cpu time    0.0590: real time    0.2374

 eigenvalue-minimisations  :    56
 total energy-change (2. order) :-0.2501070E+00  (-0.2109150E+00)
 number of electron       8.0000000 magnetization 
 augmentation part        8.0000000 magnetization 

 Free energy of the ion-electron system (eV)
  ---------------------------------------------------
  alpha Z        PSCENC =         5.09113229
  Ewald energy   TEWEN  =       551.13459490
  -Hartree energ DENC   =      -777.05864006
  -exchange      EXHF   =         0.00000000
  -V(xc)+E(xc)   XCENC  =        27.46714398
  PAW double counting   =        75.66288619      -77.96384553
  entropy T*S    EENTRO =        -0.02489058
  eigenvalues    EBANDS =      -117.62629641
  atomic energy  EATOM  =       294.25444774
  Solvation  Ediel_sol  =         0.00000000
  ---------------------------------------------------
  free energy    TOTEN  =       -19.06346748 eV

  energy without entropy =      -19.03857689  energy(sigma->0) =      -19.05517061


--------------------------------------------------------------------------------------------------------




 average (electrostatic) potential at core
  the test charge radii are     0.6991
  (the norm of the test charge is              1.0000)
       1 -62.8965       2 -62.8965
 
 
 
 E-fermi :  -4.9755     XC(G=0):  -3.9366     alpha+bet : -3.1363


 k-point     1 :       0.0000    0.0000    0.0000
  band No.  band energies     occupation 
      1     -25.0226      2.00000
      2     -12.1653      2.00000
      3      -9.4685      2.00000
      4      -9.3974      2.00000
      5       1.2672      0.00000
      6       2.5841      0.00000
      7       3.2056      0.00000
      8       3.6056      0.00000
      9       3.5170      0.00000
     10       6.4697      0.00000
     11       7.6310      0.00000
     12       7.6972      0.00000
     13      12.3747      0.00000
     14      13.5444      0.00000

 k-point     2 :       0.3333    0.0000    0.0000
  band No.  band energies     occupation 
      1     -22.5507      2.00000
      2     -15.5779      2.00000
      3     -12.0124      2.00000
      4      -9.3285      2.00000
      5      -0.1917     -0.00000
      6       2.0634      0.00000
      7       4.7331      0.00000
      8       6.0440      0.00000
      9       7.2048      0.00000
     10       9.7199      0.00000
     11      11.1253      0.00000
     12      12.8026      0.00000
     13      14.2850      0.00000
     14      16.0465      0.00000

 k-point     3 :       0.3333    0.3333    0.0000
  band No.  band energies     occupation 
      1     -18.4684      2.00000
      2     -18.4624      2.00000
      3     -16.3198      2.00000
      4      -4.9854      1.08380
      5      -4.9656      0.91620
      6       7.2638      0.00000
      7       8.5463      0.00000
      8       9.6123      0.00000
      9      10.3104      0.00000
     10      13.1563      0.00000
     11      13.3974      0.00000
     12      13.7359      0.00000
     13      14.5444      0.00000
     14      14.4036      0.00000

 k-point     4 :      -0.3333    0.3333    0.0000
  band No.  band energies     occupation 
      1     -22.5492      2.00000
      2     -15.5846      2.00000
      3     -12.0053      2.00000
      4      -9.3274      2.00000
      5      -0.1448     -0.00000
      6       2.0683      0.00000
      7       4.7322      0.00000
      8       6.0445      0.00000
      9       7.1937      0.00000
     10       9.9261      0.00000
     11      11.1547      0.00000
     12      13.8262      0.00000
     13      14.4959      0.00000
     14      16.8130      0.00000


--------------------------------------------------------------------------------------------------------


 soft charge-density along one line, spin component           1
         0         1         2         3         4         5         6         7         8         9
 total charge-density along one line
 
 pseudopotential strength for first ion, spin component:           1
 10.479   0.027  -0.000   0.000   0.000   0.000  -0.000  -0.000
  0.027  -0.001   0.000  -0.000  -0.000   0.000  -0.000  -0.000
 -0.000   0.000  -4.631   0.000   0.000  -0.003   0.000   0.000
  0.000  -0.000   0.000  -4.598   0.000   0.000   0.002   0.000
  0.000  -0.000   0.000   0.000  -4.631   0.000   0.000  -0.003
  0.000   0.000  -0.003   0.000   0.000  -0.776   0.000   0.000
 -0.000  -0.000   0.000   0.002   0.000   0.000  -0.775   0.000
 -0.000  -0.000   0.000   0.000  -0.003   0.000   0.000  -0.776
 total augmentation occupancy for first ion, spin component:           1
  2.000   0.000   0.000   0.000   0.000   0.000   0.000   0.000
  0.000   0.000   0.000   0.000   0.000   0.000   0.000   0.000
  0.000   0.000   0.667   0.000   0.000   0.000   0.000   0.000
  0.000   0.000   0.000   0.667   0.000   0.000   0.000   0.000
  0.000   0.000   0.000   0.000   0.667   0.000   0.000   0.000
  0.000   0.000   0.000   0.000   0.000   0.000   0.000   0.000
  0.000   0.000   0.000   0.000   0.000   0.000   0.000   0.000
  0.000   0.000   0.000   0.000   0.000   0.000   0.000   0.000


----------------------------------------- Iteration    1(   7)  ---------------------------------------


    EDDIAG:  cpu time    0.0190: real time    0.0307
  RMM-DIIS:  cpu time    0.0240: real time    0.1830
    ORTHCH:  cpu time    0.0240: real time    0.0241
       DOS:  cpu time    0.0000: real time    0.0002
    --------------------------------------------
      LOOP:  cpu time    0.0680: real time    0.2402

 eigenvalue-minimisations  :    56
 total energy-change (2. order) :-0.6201975E-01  (-0.5349920E-01)
 number of electron       8.0000000 magnetization 
 augmentation part        8.0000000 magnetization 

 Free energy of the ion-electron system (eV)
  ---------------------------------------------------
  alpha Z        PSCENC =         5.09113229
  Ewald energy   TEWEN  =       551.13459490
  -Hartree energ DENC   =      -777.05864006
  -exchange      EXHF   =         0.00000000
  -V(xc)+E(xc)   XCENC  =        27.46714398
  PAW double counting   =        75.66288619      -77.96384553
  entropy T*S    EENTRO =        -0.02506385
  eigenvalues    EBANDS =      -117.68814289
  atomic energy  EATOM  =       294.25444774
  Solvation  Ediel_sol  =         0.00000000
  ---------------------------------------------------
  free energy    TOTEN  =       -19.12548723 eV

  energy without entropy =      -19.10042337  energy(sigma->0) =      -19.11713261


--------------------------------------------------------------------------------------------------------




 average (electrostatic) potential at core
  the test charge radii are     0.6991
  (the norm of the test charge is              1.0000)
       1 -62.8965       2 -62.8965
 
 
 
 E-fermi :  -4.9938     XC(G=0):  -3.9366     alpha+bet : -3.1363


 k-point     1 :       0.0000    0.0000    0.0000
  band No.  band energies     occupation 
      1     -25.0236      2.00000
      2     -12.1716      2.00000
      3      -9.4704      2.00000
      4      -9.4514      2.00000
      5       1.2665      0.00000
      6       2.5798      0.00000
      7       2.7406      0.00000
      8       3.1558      0.00000
      9       3.6295      0.00000
     10       6.4776      0.00000
     11       6.8774      0.00000
     12       7.2353      0.00000
     13       9.8530      0.00000
     14      12.8298      0.00000

 k-point     2 :       0.3333    0.0000    0.0000
  band No.  band energies     occupation 
      1     -22.5538      2.00000
      2     -15.5916      2.00000
      3     -12.0152      2.00000
      4      -9.3339      2.00000
      5      -0.2353     -0.00000
      6       1.9982      0.00000
      7       4.7289      0.00000
      8       6.0388      0.00000
      9       7.1966      0.00000
     10       9.7069      0.00000
     11      11.0789      0.00000
     12      11.9908      0.00000
     13      13.9489      0.00000
     14      15.5001      0.00000

 k-point     3 :       0.3333    0.3333    0.0000
  band No.  band energies     occupation 
      1     -18.4705      2.00000
      2     -18.4689      2.00000
      3     -16.3244      2.00000
      4      -4.9963      1.02069
      5      -4.9914      0.97931
      6       7.2324      0.00000
      7       8.3035      0.00000
      8       8.9934      0.00000
      9      10.1498      0.00000
     10      13.0385      0.00000
     11      13.2321      0.00000
     12      13.4988      0.00000
     13      14.0133      0.00000
     14      14.4220      0.00000

 k-point     4 :      -0.3333    0.3333    0.0000
  band No.  band energies     occupation 
      1     -22.5534      2.00000
      2     -15.5945      2.00000
      3     -12.0120      2.00000
      4      -9.3335      2.00000
      5      -0.2146     -0.00000
      6       2.0058      0.00000
      7       4.7284      0.00000
      8       6.0381      0.00000
      9       7.1897      0.00000
     10       9.7780      0.00000
     11      11.0839      0.00000
     12      12.7410      0.00000
     13      13.7752      0.00000
     14      16.5748      0.00000


--------------------------------------------------------------------------------------------------------


 soft charge-density along one line, spin component           1
         0         1         2         3         4         5         6         7         8         9
 total charge-density along one line
 
 pseudopotential strength for first ion, spin component:           1
 10.479   0.027  -0.000   0.000   0.000   0.000  -0.000  -0.000
  0.027  -0.001   0.000  -0.000  -0.000   0.000  -0.000  -0.000
 -0.000   0.000  -4.631   0.000   0.000  -0.003   0.000   0.000
  0.000  -0.000   0.000  -4.598   0.000   0.000   0.002   0.000
  0.000  -0.000   0.000   0.000  -4.631   0.000   0.000  -0.003
  0.000   0.000  -0.003   0.000   0.000  -0.776   0.000   0.000
 -0.000  -0.000   0.000   0.002   0.000   0.000  -0.775   0.000
 -0.000  -0.000   0.000   0.000  -0.003   0.000   0.000  -0.776
 total augmentation occupancy for first ion, spin component:           1
  2.000   0.000   0.000   0.000   0.000   0.000   0.000   0.000
  0.000   0.000   0.000   0.000   0.000   0.000   0.000   0.000
  0.000   0.000   0.667   0.000   0.000   0.000   0.000   0.000
  0.000   0.000   0.000   0.667   0.000   0.000   0.000   0.000
  0.000   0.000   0.000   0.000   0.667   0.000   0.000   0.000
  0.000   0.000   0.000   0.000   0.000   0.000   0.000   0.000
  0.000   0.000   0.000   0.000   0.000   0.000   0.000   0.000
  0.000   0.000   0.000   0.000   0.000   0.000   0.000   0.000


----------------------------------------- Iteration    1(   8)  ---------------------------------------


    EDDIAG:  cpu time    0.0210: real time    0.0308
  RMM-DIIS:  cpu time    0.0300: real time    0.1896
    ORTHCH:  cpu time    0.0490: real time    0.0494
       DOS:  cpu time    0.0010: real time    0.0003
    --------------------------------------------
      LOOP:  cpu time    0.1010: real time    0.2721

 eigenvalue-minimisations  :    56
 total energy-change (2. order) :-0.1613568E-01  (-0.1377235E-01)
 number of electron       8.0000000 magnetization 
 augmentation part        8.0000000 magnetization 

 Free energy of the ion-electron system (eV)
  ---------------------------------------------------
  alpha Z        PSCENC =         5.09113229
  Ewald energy   TEWEN  =       551.13459490
  -Hartree energ DENC   =      -777.05864006
  -exchange      EXHF   =         0.00000000
  -V(xc)+E(xc)   XCENC  =        27.46714398
  PAW double counting   =        75.66288619      -77.96384553
  entropy T*S    EENTRO =        -0.02507457
  eigenvalues    EBANDS =      -117.70426787
  atomic energy  EATOM  =       294.25444774
  Solvation  Ediel_sol  =         0.00000000
  ---------------------------------------------------
  free energy    TOTEN  =       -19.14162291 eV

  energy without entropy =      -19.11654835  energy(sigma->0) =      -19.13326472


--------------------------------------------------------------------------------------------------------




 average (electrostatic) potential at core
  the test charge radii are     0.6991
  (the norm of the test charge is              1.0000)
       1 -62.8965       2 -62.8965
 
 
 
 E-fermi :  -4.9980     XC(G=0):  -3.9366     alpha+bet : -3.1363


 k-point     1 :       0.0000    0.0000    0.0000
  band No.  band energies     occupation 
      1     -25.0239      2.00000
      2     -12.1731      2.00000
      3      -9.4708      2.00000
      4      -9.4660      2.00000
      5       1.2662      0.00000
      6       2.4697      0.00000
      7       2.4960      0.00000
      8       2.8308      0.00000
      9       3.6366      0.00000
     10       6.2705      0.00000
     11       6.3439      0.00000
     12       7.6566      0.00000
     13       7.7065      0.00000
     14      12.8007      0.00000

 k-point     2 :       0.3333    0.0000    0.0000
  band No.  band energies     occupation 
      1     -22.5551      2.00000
      2     -15.5954      2.00000
      3     -12.0157      2.00000
      4      -9.3348      2.00000
      5      -0.2498     -0.00000
      6       1.9719      0.00000
      7       4.7268      0.00000
      8       6.0357      0.00000
      9       7.1910      0.00000
     10       9.7044      0.00000
     11      11.0219      0.00000
     12      11.3674      0.00000
     13      13.6895      0.00000
     14      14.9031      0.00000

 k-point     3 :       0.3333    0.3333    0.0000
  band No.  band energies     occupation 
      1     -18.4710      2.00000
      2     -18.4705      2.00000
      3     -16.3254      2.00000
      4      -4.9985      1.00448
      5      -4.9975      0.99552
      6       7.2209      0.00000
      7       8.1684      0.00000
      8       8.6271      0.00000
      9      10.0308      0.00000
     10      12.9134      0.00000
     11      13.1143      0.00000
     12      13.3027      0.00000
     13      13.7959      0.00000
     14      14.4146      0.00000

 k-point     4 :      -0.3333    0.3333    0.0000
  band No.  band energies     occupation 
      1     -22.5550      2.00000
      2     -15.5968      2.00000
      3     -12.0141      2.00000
      4      -9.3347      2.00000
      5      -0.2396     -0.00000
      6       1.9782      0.00000
      7       4.7263      0.00000
      8       6.0352      0.00000
      9       7.1873      0.00000
     10       9.7352      0.00000
     11      11.0232      0.00000
     12      11.8230      0.00000
     13      13.3008      0.00000
     14      16.3666      0.00000


--------------------------------------------------------------------------------------------------------


 soft charge-density along one line, spin component           1
         0         1         2         3         4         5         6         7         8         9
 total charge-density along one line
 
 pseudopotential strength for first ion, spin component:           1
 10.479   0.027  -0.000   0.000   0.000   0.000  -0.000  -0.000
  0.027  -0.001   0.000  -0.000  -0.000   0.000  -0.000  -0.000
 -0.000   0.000  -4.631   0.000   0.000  -0.003   0.000   0.000
  0.000  -0.000   0.000  -4.598   0.000   0.000   0.002   0.000
  0.000  -0.000   0.000   0.000  -4.631   0.000   0.000  -0.003
  0.000   0.000  -0.003   0.000   0.000  -0.776   0.000   0.000
 -0.000  -0.000   0.000   0.002   0.000   0.000  -0.775   0.000
 -0.000  -0.000   0.000   0.000  -0.003   0.000   0.000  -0.776
 total augmentation occupancy for first ion, spin component:           1
  2.000   0.000   0.000   0.000   0.000   0.000   0.000   0.000
  0.000   0.000   0.000   0.000   0.000   0.000   0.000   0.000
  0.000   0.000   0.667   0.000   0.000   0.000   0.000   0.000
  0.000   0.000   0.000   0.667   0.000   0.000   0.000   0.000
  0.000   0.000   0.000   0.000   0.667   0.000   0.000   0.000
  0.000   0.000   0.000   0.000   0.000   0.000   0.000   0.000
  0.000   0.000   0.000   0.000   0.000   0.000   0.000   0.000
  0.000   0.000   0.000   0.000   0.000   0.000   0.000   0.000


----------------------------------------- Iteration    1(   9)  ---------------------------------------


    EDDIAG:  cpu time    0.0150: real time    0.0273
  RMM-DIIS:  cpu time    0.0530: real time    0.1923
    ORTHCH:  cpu time    0.0290: real time    0.0290
       DOS:  cpu time    0.0000: real time    0.0002
    --------------------------------------------
      LOOP:  cpu time    0.0970: real time    0.2511

 eigenvalue-minimisations  :   114
 total energy-change (2. order) :-0.5343659E-02  (-0.4866584E-02)
 number of electron       8.0000000 magnetization 
 augmentation part        8.0000000 magnetization 

 Free energy of the ion-electron system (eV)
  ---------------------------------------------------
  alpha Z        PSCENC =         5.09113229
  Ewald energy   TEWEN  =       551.13459490
  -Hartree energ DENC   =      -777.05864006
  -exchange      EXHF   =         0.00000000
  -V(xc)+E(xc)   XCENC  =        27.46714398
  PAW double counting   =        75.66288619      -77.96384553
  entropy T*S    EENTRO =        -0.02507509
  eigenvalues    EBANDS =      -117.70961100
  atomic energy  EATOM  =       294.25444774
  Solvation  Ediel_sol  =         0.00000000
  ---------------------------------------------------
  free energy    TOTEN  =       -19.14696657 eV

  energy without entropy =      -19.12189148  energy(sigma->0) =      -19.13860821


--------------------------------------------------------------------------------------------------------




 average (electrostatic) potential at core
  the test charge radii are     0.6991
  (the norm of the test charge is              1.0000)
       1 -62.8965       2 -62.8965
 
 
 
 E-fermi :  -4.9992     XC(G=0):  -3.9366     alpha+bet : -3.1363


 k-point     1 :       0.0000    0.0000    0.0000
  band No.  band energies     occupation 
      1     -25.0240      2.00000
      2     -12.1735      2.00000
      3      -9.4709      2.00000
      4      -9.4694      2.00000
      5       1.2661      0.00000
      6       2.3115      0.00000
      7       2.5803      0.00000
      8       2.5217      0.00000
      9       3.6366      0.00000
     10       5.9869      0.00000
     11       6.4813      0.00000
     12       6.8218      0.00000
     13       6.9650      0.00000
     14      12.5697      0.00000

 k-point     2 :       0.3333    0.0000    0.0000
  band No.  band energies     occupation 
      1     -22.5560      2.00000
      2     -15.5968      2.00000
      3     -12.0158      2.00000
      4      -9.3351      2.00000
      5      -0.2570     -0.00000
      6       1.9585      0.00000
      7       4.7251      0.00000
      8       6.0336      0.00000
      9       7.1859      0.00000
     10       9.7030      0.00000
     11      10.7605      0.00000
     12      10.8991      0.00000
     13      13.2357      0.00000
     14      14.1786      0.00000

 k-point     3 :       0.3333    0.3333    0.0000
  band No.  band energies     occupation 
      1     -18.4712      2.00000
      2     -18.4710      2.00000
      3     -16.3256      2.00000
      4      -4.9991      0.99956
      5      -4.9992      1.00044
      6       7.2147      0.00000
      7       8.0458      0.00000
      8       8.2749      0.00000
      9       9.9373      0.00000
     10      12.7728      0.00000
     11      12.9519      0.00000
     12      13.1601      0.00000
     13      13.6704      0.00000
     14      14.3137      0.00000

 k-point     4 :      -0.3333    0.3333    0.0000
  band No.  band energies     occupation 
      1     -22.5559      2.00000
      2     -15.5974      2.00000
      3     -12.0149      2.00000
      4      -9.3350      2.00000
      5      -0.2540     -0.00000
      6       1.9616      0.00000
      7       4.7246      0.00000
      8       6.0334      0.00000
      9       7.1851      0.00000
     10       9.7102      0.00000
     11      10.9107      0.00000
     12      11.2019      0.00000
     13      12.7079      0.00000
     14      15.9994      0.00000


--------------------------------------------------------------------------------------------------------


 soft charge-density along one line, spin component           1
         0         1         2         3         4         5         6         7         8         9
 total charge-density along one line
 
 pseudopotential strength for first ion, spin component:           1
 10.479   0.027  -0.000   0.000   0.000   0.000  -0.000  -0.000
  0.027  -0.001   0.000  -0.000  -0.000   0.000  -0.000  -0.000
 -0.000   0.000  -4.631   0.000   0.000  -0.003   0.000   0.000
  0.000  -0.000   0.000  -4.598   0.000   0.000   0.002   0.000
  0.000  -0.000   0.000   0.000  -4.631   0.000   0.000  -0.003
  0.000   0.000  -0.003   0.000   0.000  -0.776   0.000   0.000
 -0.000  -0.000   0.000   0.002   0.000   0.000  -0.775   0.000
 -0.000  -0.000   0.000   0.000  -0.003   0.000   0.000  -0.776
 total augmentation occupancy for first ion, spin component:           1
  2.000   0.000   0.000   0.000   0.000   0.000   0.000   0.000
  0.000   0.000   0.000   0.000   0.000   0.000   0.000   0.000
  0.000   0.000   0.667   0.000   0.000   0.000   0.000   0.000
  0.000   0.000   0.000   0.667   0.000   0.000   0.000   0.000
  0.000   0.000   0.000   0.000   0.667   0.000   0.000   0.000
  0.000   0.000   0.000   0.000   0.000   0.000   0.000   0.000
  0.000   0.000   0.000   0.000   0.000   0.000   0.000   0.000
  0.000   0.000   0.000   0.000   0.000   0.000   0.000   0.000


----------------------------------------- Iteration    1(  10)  ---------------------------------------


    EDDIAG:  cpu time    0.0120: real time    0.0230
  RMM-DIIS:  cpu time    0.0410: real time    0.1896
    ORTHCH:  cpu time    0.0060: real time    0.0063
       DOS:  cpu time    0.0000: real time    0.0002
    --------------------------------------------
      LOOP:  cpu time    0.0600: real time    0.2209

 eigenvalue-minimisations  :   114
 total energy-change (2. order) :-0.5176955E-03  (-0.4269066E-03)
 number of electron       8.0000000 magnetization 
 augmentation part        8.0000000 magnetization 

 Free energy of the ion-electron system (eV)
  ---------------------------------------------------
  alpha Z        PSCENC =         5.09113229
  Ewald energy   TEWEN  =       551.13459490
  -Hartree energ DENC   =      -777.05864006
  -exchange      EXHF   =         0.00000000
  -V(xc)+E(xc)   XCENC  =        27.46714398
  PAW double counting   =        75.66288619      -77.96384553
  entropy T*S    EENTRO =        -0.02507507
  eigenvalues    EBANDS =      -117.71012871
  atomic energy  EATOM  =       294.25444774
  Solvation  Ediel_sol  =         0.00000000
  ---------------------------------------------------
  free energy    TOTEN  =       -19.14748427 eV

  energy without entropy =      -19.12240919  energy(sigma->0) =      -19.13912591


--------------------------------------------------------------------------------------------------------




 average (electrostatic) potential at core
  the test charge radii are     0.6991
  (the norm of the test charge is              1.0000)
       1 -62.8965       2 -62.8965
 
 
 
 E-fermi :  -4.9992     XC(G=0):  -3.9366     alpha+bet : -3.1363


 k-point     1 :       0.0000    0.0000    0.0000
  band No.  band energies     occupation 
      1     -25.0240      2.00000
      2     -12.1735      2.00000
      3      -9.4710      2.00000
      4      -9.4696      2.00000
      5       1.2661      0.00000
      6       2.3009      0.00000
      7       2.3191      0.00000
      8       2.5843      0.00000
      9       3.6367      0.00000
     10       5.6551      0.00000
     11       6.3382      0.00000
     12       6.4691      0.00000
     13       7.6949      0.00000
     14      12.5225      0.00000

 k-point     2 :       0.3333    0.0000    0.0000
  band No.  band energies     occupation 
      1     -22.5561      2.00000
      2     -15.5970      2.00000
      3     -12.0158      2.00000
      4      -9.3351      2.00000
      5      -0.2587     -0.00000
      6       1.9553      0.00000
      7       4.7247      0.00000
      8       6.0328      0.00000
      9       7.1852      0.00000
     10       9.7030      0.00000
     11      10.1237      0.00000
     12      11.0461      0.00000
     13      12.1063      0.00000
     14      13.9797      0.00000

 k-point     3 :       0.3333    0.3333    0.0000
  band No.  band energies     occupation 
      1     -18.4712      2.00000
      2     -18.4711      2.00000
      3     -16.3256      2.00000
      4      -4.9993      1.00086
      5      -4.9991      0.99914
      6       7.2130      0.00000
      7       7.9461      0.00000
      8       7.9915      0.00000
      9       9.8730      0.00000
     10      12.5684      0.00000
     11      12.6880      0.00000
     12      13.1494      0.00000
     13      13.5740      0.00000
     14      14.3287      0.00000

 k-point     4 :      -0.3333    0.3333    0.0000
  band No.  band energies     occupation 
      1     -22.5561      2.00000
      2     -15.5975      2.00000
      3     -12.0150      2.00000
      4      -9.3351      2.00000
      5      -0.2584     -0.00000
      6       1.9558      0.00000
      7       4.7245      0.00000
      8       6.0327      0.00000
      9       7.1846      0.00000
     10       9.7047      0.00000
     11      10.5586      0.00000
     12      10.9283      0.00000
     13      11.9134      0.00000
     14      16.1915      0.00000


--------------------------------------------------------------------------------------------------------


 soft charge-density along one line, spin component           1
         0         1         2         3         4         5         6         7         8         9
 total charge-density along one line
 
 pseudopotential strength for first ion, spin component:           1
 10.479   0.027  -0.000   0.000   0.000   0.000  -0.000  -0.000
  0.027  -0.001   0.000  -0.000  -0.000   0.000  -0.000  -0.000
 -0.000   0.000  -4.631   0.000   0.000  -0.003   0.000   0.000
  0.000  -0.000   0.000  -4.598   0.000   0.000   0.002   0.000
  0.000  -0.000   0.000   0.000  -4.631   0.000   0.000  -0.003
  0.000   0.000  -0.003   0.000   0.000  -0.776   0.000   0.000
 -0.000  -0.000   0.000   0.002   0.000   0.000  -0.775   0.000
 -0.000  -0.000   0.000   0.000  -0.003   0.000   0.000  -0.776
 total augmentation occupancy for first ion, spin component:           1
  2.000   0.000   0.000   0.000   0.000   0.000   0.000   0.000
  0.000   0.000   0.000   0.000   0.000   0.000   0.000   0.000
  0.000   0.000   0.667   0.000   0.000   0.000   0.000   0.000
  0.000   0.000   0.000   0.667   0.000   0.000   0.000   0.000
  0.000   0.000   0.000   0.000   0.667   0.000   0.000   0.000
  0.000   0.000   0.000   0.000   0.000   0.000   0.000   0.000
  0.000   0.000   0.000   0.000   0.000   0.000   0.000   0.000
  0.000   0.000   0.000   0.000   0.000   0.000   0.000   0.000


----------------------------------------- Iteration    1(  11)  ---------------------------------------


    EDDIAG:  cpu time    0.0140: real time    0.0264
  RMM-DIIS:  cpu time    0.0410: real time    0.1925
[...]
 number of electron       8.0000000 magnetization 
 augmentation part        0.1947568 magnetization 

 Free energy of the ion-electron system (eV)
  ---------------------------------------------------
  alpha Z        PSCENC =         5.09113229
  Ewald energy   TEWEN  =       551.11941335
  -Hartree energ DENC   =      -808.22485129
  -exchange      EXHF   =         0.00000000
  -V(xc)+E(xc)   XCENC  =        28.66743959
  PAW double counting   =       137.44233686     -140.01340495
  entropy T*S    EENTRO =        -0.02507506
  eigenvalues    EBANDS =       -86.22065480
  atomic energy  EATOM  =       294.25444774
  Solvation  Ediel_sol  =         0.00000000
  ---------------------------------------------------
  free energy    TOTEN  =       -17.90921626 eV

  energy without entropy =      -17.88414120  energy(sigma->0) =      -17.90085791


--------------------------------------------------------------------------------------------------------




 average (electrostatic) potential at core
  the test charge radii are     0.6991
  (the norm of the test charge is              1.0000)
       1 -57.2254       2 -57.2255
 
 
 
 E-fermi :  -1.7889     XC(G=0):  -3.5730     alpha+bet : -3.1363


 k-point     1 :       0.0000    0.0000    0.0000
  band No.  band energies     occupation 
      1     -21.1494      2.00000
      2      -9.2880      2.00000
      3      -4.8025      2.00000
      4      -4.8013      2.00000
      5       1.4493     -0.00000
      6       2.6008     -0.00000
      7       3.4005     -0.00000
      8       6.4359      0.00000
      9       6.4364      0.00000
     10       6.5610      0.00000
     11       7.8057      0.00000
     12       9.4465      0.00000
     13      10.2754      0.00000
     14      12.7859      0.00000

 k-point     2 :       0.3333    0.0000    0.0000
  band No.  band energies     occupation 
      1     -18.5934      2.00000
      2     -11.3511      2.00000
      3      -7.5044      2.00000
      4      -6.3388      2.00000
      5       3.0455     -0.00000
      6       4.9592      0.00000
      7       5.7436      0.00000
      8       6.1325      0.00000
      9       6.9615      0.00000
     10       9.9406      0.00000
     11      11.2641      0.00000
     12      13.7926      0.00000
     13      14.2422      0.00000
     14      14.8397      0.00000

 k-point     3 :       0.3333    0.3333    0.0000
  band No.  band energies     occupation 
      1     -14.3180      2.00000
      2     -14.3179      2.00000
      3     -12.1884      2.00000
      4      -1.7890      1.00106
      5      -1.7888      0.99894
      6       8.7613      0.00000
      7      10.9612      0.00000
      8      10.9616      0.00000
      9      11.5772      0.00000
     10      13.1696      0.00000
     11      13.1713      0.00000
     12      13.2715      0.00000
     13      13.2745      0.00000
     14      13.7418      0.00000

 k-point     4 :      -0.3333    0.3333    0.0000
  band No.  band energies     occupation 
      1     -18.5935      2.00000
      2     -11.3515      2.00000
      3      -7.5037      2.00000
      4      -6.3387      2.00000
      5       3.0454     -0.00000
      6       4.9592      0.00000
      7       5.7434      0.00000
      8       6.1325      0.00000
      9       6.9615      0.00000
     10       9.9406      0.00000
     11      11.2641      0.00000
     12      13.7918      0.00000
     13      14.2430      0.00000
     14      14.8397      0.00000


--------------------------------------------------------------------------------------------------------


 soft charge-density along one line, spin component           1
         0         1         2         3         4         5         6         7         8         9
 total charge-density along one line
 
 pseudopotential strength for first ion, spin component:           1
 10.168   0.017  -0.000  -0.000   0.000   0.000   0.000  -0.000
  0.017  -0.002   0.000   0.000  -0.000   0.000   0.000  -0.000
 -0.000   0.000  -4.292  -0.000  -0.000  -0.017  -0.000   0.000
 -0.000   0.000  -0.000  -4.287   0.000  -0.000  -0.014   0.000
  0.000  -0.000  -0.000   0.000  -4.292   0.000   0.000  -0.017
  0.000   0.000  -0.017  -0.000   0.000  -0.771  -0.000  -0.000
  0.000   0.000  -0.000  -0.014   0.000  -0.000  -0.771   0.000
 -0.000  -0.000   0.000   0.000  -0.017  -0.000   0.000  -0.771
 total augmentation occupancy for first ion, spin component:           1
  1.441  -1.145   0.000   0.002  -0.000  -0.000  -0.001   0.000
 -1.145   1.066  -0.000   0.007   0.000   0.000   0.002  -0.000
  0.000  -0.000   1.225  -0.000  -0.000   0.226  -0.000   0.000
  0.002   0.007  -0.000   0.925   0.000   0.000   0.106  -0.000
 -0.000   0.000  -0.000   0.000   1.225   0.000   0.000   0.226
 -0.000   0.000   0.226   0.000   0.000   0.048  -0.000   0.000
 -0.001   0.002  -0.000   0.106   0.000  -0.000   0.014   0.000
  0.000  -0.000   0.000  -0.000   0.226   0.000   0.000   0.047


------------------------ aborting loop because EDIFF is reached ----------------------------------------


    CHARGE:  cpu time    0.0090: real time    0.0089
    FORLOC:  cpu time    0.0010: real time    0.0003
    FORNL :  cpu time    0.0420: real time    0.3296
    STRESS:  cpu time    0.1740: real time    1.0049
    FORHAR:  cpu time    0.0020: real time    0.0016
    MIXING:  cpu time    0.0000: real time    0.0004
    OFIELD:  cpu time    0.0000: real time    0.0000

  FORCE on cell =-STRESS in cart. coord.  units (eV):
  Direction    XX          YY          ZZ          XY          YZ          ZX
  --------------------------------------------------------------------------------------
  Alpha Z     5.09113     5.09113     5.09113
  Ewald     818.25726   818.25413 -1085.39193    -0.00269     0.00001    -0.00002
  Hartree   796.65767   796.65702  -785.08694    -0.00056     0.00000    -0.00000
  E(xc)     -29.08735   -29.08738   -30.24718    -0.00003    -0.00000     0.00000
  Local   -1703.53472 -1703.53262  1765.93817     0.00182    -0.00000     0.00001
  n-local    -7.54487    -7.53758    -6.88271    -0.00176     0.00341     0.00196
  augment    -0.77884    -0.77873    -0.72189     0.00009    -0.00000     0.00000
  Kinetic   119.43719   121.41535   137.00874    -0.57166     0.02961     0.01714
  Fock        0.00000     0.00000     0.00000     0.00000     0.00000     0.00000
  -------------------------------------------------------------------------------------
  Total      -0.50969    -0.51151    -0.29260    -0.00158    -0.00001     0.00002
  in kB     -12.75624   -12.80177    -7.32307    -0.03943    -0.00030     0.00052
  external pressure =      -10.96 kB  Pullay stress =        0.00 kB


 VOLUME and BASIS-vectors are now :
 -----------------------------------------------------------------------------
  energy-cutoff  :      400.00
  volume of cell :       64.02
      direct lattice vectors                 reciprocal lattice vectors
     2.481948769  0.000000000  0.000000000     0.402909203  0.232619737 -0.000000000
    -1.240974385  2.149430685  0.000000000     0.000000000  0.465239473 -0.000000000
     0.000000000  0.000000000 12.000000000     0.000000000  0.000000000  0.083333333

  length of vectors
     2.481948769  2.481948769 12.000000000     0.465239473  0.465239473  0.083333333


 FORCES acting on ions
    electron-ion (+dipol)            ewald-force                    non-local-force                 convergence-correction
 -----------------------------------------------------------------------------------------------
   0.355E-02 -.205E-02 -.294E+01   -.217E-02 0.126E-02 0.304E+01   0.105E-02 -.606E-03 -.266E+00   -.672E-04 0.463E-04 0.321E-01
   -.355E-02 0.204E-02 0.294E+01   0.217E-02 -.126E-02 -.304E+01   -.105E-02 0.606E-03 0.266E+00   0.672E-04 -.469E-04 0.250E-01
 -----------------------------------------------------------------------------------------------
   -.302E-05 -.531E-05 -.255E-05   -.127E-14 -.707E-14 0.000E+00   -.557E-16 0.000E+00 0.555E-16   0.508E-08 -.564E-06 0.572E-01
 
 
 POSITION                                       TOTAL-FORCE (eV/Angst)
 -----------------------------------------------------------------------------------
      0.00000      0.00000      1.70004         0.002358     -0.001361     -0.164495
     -0.00001      1.43296      1.69004        -0.002358      0.001361      0.164495
 -----------------------------------------------------------------------------------
    total drift:                               -0.000003     -0.000006      0.057150


--------------------------------------------------------------------------------------------------------



  FREE ENERGIE OF THE ION-ELECTRON SYSTEM (eV)
  ---------------------------------------------------
  free  energy   TOTEN  =       -17.90921626 eV

  energy  without entropy=      -17.88414120  energy(sigma->0) =      -17.90085791
 
 d Force =-0.8562574E-05[-0.329E-02, 0.327E-02]  d Energy = 0.3703436E-05-0.123E-04
 d Force =-0.3636778E-12[ 0.607E-01,-0.607E-01]  d Ewald  =-0.3410605E-12 0.000E+00


--------------------------------------------------------------------------------------------------------


    POTLOK:  cpu time    0.0090: real time    0.0086


--------------------------------------------------------------------------------------------------------


 Finite differences progress:
  Degree of freedom:   6/  6
  Displacement:        2/  2
  Total:              12/ 12
 
 FORCES
 ------
 
 INITIAL FORCE
  0.002238  -0.001292   0.000000
 -0.002238   0.001292   0.000000
DOF:   1 ATOM:   1 AXIS:   1 DISPLACEMENT:   1
  0.742822  -0.012320   0.000000
 -0.742822   0.012320   0.000000
 
DOF:   1 ATOM:   1 AXIS:   1 DISPLACEMENT:   2
 -0.744992  -0.014001   0.000000
  0.744992   0.014001  -0.000000
 
DOF:   2 ATOM:   1 AXIS:   2 DISPLACEMENT:   1
  0.003632   0.748516   0.000000
 -0.003632  -0.748516  -0.000000
 
DOF:   2 ATOM:   1 AXIS:   2 DISPLACEMENT:   2
  0.002000  -0.738859   0.000000
 -0.002000   0.738859   0.000000
 
DOF:   3 ATOM:   1 AXIS:   3 DISPLACEMENT:   1
  0.002311  -0.001334  -0.163727
 -0.002311   0.001334   0.163727
 
DOF:   3 ATOM:   1 AXIS:   3 DISPLACEMENT:   2
  0.002181  -0.001259   0.164498
 -0.002181   0.001259  -0.164498
 
DOF:   4 ATOM:   2 AXIS:   1 DISPLACEMENT:   1
 -0.744024  -0.012928   0.000000
  0.744024   0.012928   0.000000
 
DOF:   4 ATOM:   2 AXIS:   1 DISPLACEMENT:   2
  0.749726  -0.012940   0.000000
 -0.749726   0.012940   0.000000
 
DOF:   5 ATOM:   2 AXIS:   2 DISPLACEMENT:   1
 -0.002649  -0.730790   0.000000
  0.002649   0.730790   0.000000
 
DOF:   5 ATOM:   2 AXIS:   2 DISPLACEMENT:   2
  0.002465   0.759485   0.000000
 -0.002465  -0.759485   0.000000
 
DOF:   6 ATOM:   2 AXIS:   3 DISPLACEMENT:   1
  0.004747  -0.002741   0.163638
 -0.004747   0.002741  -0.163638
 
DOF:   6 ATOM:   2 AXIS:   3 DISPLACEMENT:   2
  0.002358  -0.001361  -0.164495
 -0.002358   0.001361   0.164495
 
  
 
 SECOND DERIVATIVES (NOT SYMMETRIZED)
 ------------------------------------
               1X          1Y          1Z          2X          2Y          2Z 
  1X    74.390722    0.084034   -0.000000  -74.390722   -0.084034    0.000000
  1Y     0.081586   74.368719    0.000000   -0.081586  -74.368719   -0.000000
  1Z     0.006498   -0.003752  -16.411256   -0.006498    0.003752   16.411256
  2X   -74.687484    0.000627    0.000000   74.687484   -0.000627    0.000000
  2Y    -0.255677  -74.513762    0.000000    0.255677   74.513762    0.000000
  2Z     0.119453   -0.068966   16.406660   -0.119453    0.068966  -16.406660
 
 
 Eigenvectors and eigenvalues of the dynamical matrix
 ----------------------------------------------------
 
 
   1 f  =   25.841445 THz   162.366585 2PiTHz  861.977782 cm-1   106.871663 meV
             X         Y         Z           dx          dy          dz
      0.000000  0.000000  1.700040    -0.000221    0.000127   -0.707156  
     -0.000012  1.432961  1.700040     0.000219   -0.000127    0.707058  
 
   2 f  =    0.067889 THz     0.426560 2PiTHz    2.264536 cm-1     0.280767 meV
             X         Y         Z           dx          dy          dz
      0.000000  0.000000  1.700040    -0.584349   -0.308292    0.253867  
     -0.000012  1.432961  1.700040    -0.582613   -0.308450    0.253899  
 
   3 f  =    0.033411 THz     0.209926 2PiTHz    1.114464 cm-1     0.138176 meV
             X         Y         Z           dx          dy          dz
      0.000000  0.000000  1.700040     0.226705   -0.626140   -0.238878  
     -0.000012  1.432961  1.700040     0.226782   -0.625285   -0.238911  
 
   4 f/i=    0.001574 THz     0.009889 2PiTHz    0.052502 cm-1     0.006509 meV
             X         Y         Z           dx          dy          dz
      0.000000  0.000000  1.700040    -0.328842    0.115716   -0.615158  
     -0.000012  1.432961  1.700040    -0.328842    0.115717   -0.615244  
 
   5 f/i=   55.015799 THz   345.674458 2PiTHz 1835.129453 cm-1   227.527136 meV
             X         Y         Z           dx          dy          dz
      0.000000  0.000000  1.700040    -0.379514    0.596213   -0.000081  
     -0.000012  1.432961  1.700040     0.380612   -0.596350   -0.000532  
 
   6 f/i=   55.101540 THz   346.213183 2PiTHz 1837.989461 cm-1   227.881732 meV
             X         Y         Z           dx          dy          dz
      0.000000  0.000000  1.700040     0.595796    0.379531    0.000042  
     -0.000012  1.432961  1.700040    -0.596766   -0.380596    0.000276  
 
 Eigenvectors after division by SQRT(mass)
 
 Eigenvectors and eigenvalues of the dynamical matrix
 ----------------------------------------------------
 
 
   1 f  =   25.841445 THz   162.366585 2PiTHz  861.977782 cm-1   106.871663 meV
             X         Y         Z           dx          dy          dz
      0.000000  0.000000  1.700040    -0.000064    0.000037   -0.204045  
     -0.000012  1.432961  1.700040     0.000063   -0.000037    0.204017  
 
   2 f  =    0.067889 THz     0.426560 2PiTHz    2.264536 cm-1     0.280767 meV
             X         Y         Z           dx          dy          dz
      0.000000  0.000000  1.700040    -0.168610   -0.088956    0.073252  
     -0.000012  1.432961  1.700040    -0.168109   -0.089001    0.073261  
 
   3 f  =    0.033411 THz     0.209926 2PiTHz    1.114464 cm-1     0.138176 meV
             X         Y         Z           dx          dy          dz
      0.000000  0.000000  1.700040     0.065414   -0.180668   -0.068927  
     -0.000012  1.432961  1.700040     0.065436   -0.180422   -0.068936  
 
   4 f/i=    0.001574 THz     0.009889 2PiTHz    0.052502 cm-1     0.006509 meV
             X         Y         Z           dx          dy          dz
      0.000000  0.000000  1.700040    -0.094885    0.033389   -0.177500  
     -0.000012  1.432961  1.700040    -0.094885    0.033389   -0.177524  
 
   5 f/i=   55.015799 THz   345.674458 2PiTHz 1835.129453 cm-1   227.527136 meV
             X         Y         Z           dx          dy          dz
      0.000000  0.000000  1.700040    -0.109506    0.172033   -0.000023  
     -0.000012  1.432961  1.700040     0.109823   -0.172072   -0.000153  
 
   6 f/i=   55.101540 THz   346.213183 2PiTHz 1837.989461 cm-1   227.881732 meV
             X         Y         Z           dx          dy          dz
      0.000000  0.000000  1.700040     0.171913    0.109511    0.000012  
     -0.000012  1.432961  1.700040    -0.172193   -0.109818    0.000080  
 
 Finite differences POTIM=  1.000000000000000E-002
  LATTYP: Found a hexagonal cell.
 ALAT       =     2.4819487690
 C/A-ratio  =     4.8349104341
  
  Lattice vectors:
  
 A1 = (   2.4819487690,   0.0000000000,   0.0000000000)
 A2 = (  -1.2409743846,   2.1494306848,   0.0000000000)
 A3 = (   0.0000000000,   0.0000000000,  12.0000000000)


Analysis of symmetry for initial positions (statically):
=====================================================================
 Subroutine PRICEL returns:
 Original cell was already a primitive cell.
 

 Routine SETGRP: Setting up the symmetry group for a 
 hexagonal supercell.


 Subroutine GETGRP returns: Found  8 space group operations
 (whereof  2 operations were pure point group operations)
 out of a pool of 24 trial point group operations.


The static configuration has the point symmetry C_1h.
 The point group associated with its full space group is D_2h.


Analysis of symmetry for dynamics (positions and initial velocities):
=====================================================================
 Subroutine PRICEL returns:
 Original cell was already a primitive cell.
 

 Routine SETGRP: Setting up the symmetry group for a 
 hexagonal supercell.


 Subroutine GETGRP returns: Found  8 space group operations
 (whereof  2 operations were pure point group operations)
 out of a pool of 24 trial point group operations.


The dynamic configuration has the point symmetry C_1h.
 The point group associated with its full space group is D_2h.


 Subroutine INISYM returns: Found  8 space group operations
 (whereof  2 operations are pure point group operations),
 and found     1 'primitive' translations

 
 KPOINTS: K-Points                                

Automatic generation of k-mesh.
Space group operators:
 irot       det(A)        alpha          n_x          n_y          n_z        tau_x        tau_y        tau_z
    1     1.000000     0.000000     1.000000     0.000000     0.000000     0.000000     0.000000     0.000000
    2    -1.000000   179.999999     0.500000     0.866025    -0.000000     0.000000     0.000000     0.000000
    3    -1.000000     0.000000     1.000000     0.000000     0.000000     0.333330     0.666670     0.283340
    4     1.000000   180.000000     0.000000     0.000000     1.000000     0.333330     0.666670     0.000000
    5    -1.000000   180.000000     0.000000     0.000000     1.000000     0.000000     0.000000     0.283340
    6     1.000000   180.000000    -0.866025     0.500000     0.000000     0.000000     0.000000     0.283340
    7    -1.000000   180.000000    -0.866025     0.500000     0.000000     0.333330     0.666670     0.000000
    8     1.000000   179.999999     0.500000     0.866025    -0.000000     0.333330     0.666670     0.283340
 
 Subroutine IBZKPT returns following result:
 ===========================================
 
 Found      4 irreducible k-points:
 
 Following reciprocal coordinates:
            Coordinates               Weight
  0.000000  0.000000  0.000000      1.000000
  0.333333  0.000000  0.000000      4.000000
  0.333333  0.333333  0.000000      2.000000
 -0.333333  0.333333  0.000000      2.000000
 
 Following cartesian coordinates:
            Coordinates               Weight
  0.000000  0.000000  0.000000      1.000000
  0.134303  0.077540 -0.000000      4.000000
  0.134303  0.232620 -0.000000      2.000000
 -0.134303  0.077540  0.000000      2.000000
 
     LOOP+:  cpu time    0.7269: real time    2.3610
    4ORBIT:  cpu time    0.0000: real time    0.0000

 total amount of memory used by VASP MPI-rank0    32799. kBytes
=======================================================================

   base      :      30000. kBytes
   nonlr-proj:        208. kBytes
   fftplans  :       1526. kBytes
   grid      :        907. kBytes
   one-center:          6. kBytes
   wavefun   :        152. kBytes
 
  
  
 General timing and accounting informations for this job:
 ========================================================
  
                  Total CPU time used (sec):       12.367
                            User time (sec):       10.788
                          System time (sec):        1.579
                         Elapsed time (sec):       47.153
  
                   Maximum memory used (kb):      292112.
                   Average memory used (kb):           0.
  
                          Minor page faults:        64586
                          Major page faults:            0
                 Voluntary context switches:        22488
