<?xml version="1.0" encoding="ISO-8859-1"?>
<modeling>
 <generator>
  <i name="program" type="string">vasp </i>
  <i name="version" type="string">5.4.4.18Apr17-6-g9f103f2a35  </i>
  <i name="subversion" type="string">(build May 02 2017 19:20:32) complex            parallel </i>
  <i name="platform" type="string">fermion-Intel-MKL </i>
  <i name="date" type="string">2017 12 10 </i>
  <i name="time" type="string">16:45:46 </i>
 </generator>
 <incar>
  <i type="string" name="SYSTEM"> phonon</i>
  <i type="int" name="ISTART">     0</i>
  <i type="string" name="PREC">n</i>
  <i type="int" name="IALGO">    48</i>
  <i type="logical" name="ADDGRID"> T  </i>
  <i type="int" name="ICHARG">     2</i>
  <i type="int" name="NELMIN">     4</i>
  <i type="int" name="IBRION">     5</i>
  <i name="EDIFF">      0.00010000</i>
  <i name="ENCUT">    400.00000000</i>
  <i name="POTIM">      0.01000000</i>
  <i type="string" name="LREAL"> Auto</i>
  <i type="int" name="ISMEAR">     1</i>
  <i name="SIGMA">      0.20000000</i>
  <i type="int" name="NWRITE">     3</i>
  <i type="logical" name="LWAVE"> F  </i>
  <i type="logical" name="LCHARG"> F  </i>
  <i type="logical" name="LVTOT"> F  </i>
  <i type="logical" name="LELF"> F  </i>
  <v type="int" name="KPOINT_BSE">    -1     0     0     0</v>
 </incar>
 <structure name="primitive_cell" >
  <crystal>
   <varray name="basis" >
    <v>       2.48194877       0.00000000       0.00000000 </v>
    <v>      -1.24097438       2.14943068       0.00000000 </v>
    <v>       0.00000000       0.00000000      12.00000000 </v>
   </varray>
   <i name="volume">     64.01732211 </i>
   <varray name="rec_basis" >
    <v>       0.40290920       0.23261974      -0.00000000 </v>
    <v>       0.00000000       0.46523947      -0.00000000 </v>
    <v>       0.00000000       0.00000000       0.08333333 </v>
   </varray>
  </crystal>
  <varray name="positions" >
   <v>       0.00000000       0.00000000       0.14167000 </v>
   <v>       0.33333000      -0.33332998       0.14167000 </v>
  </varray>
 </structure>
 <varray name="primitive_index" >
  <v type="int" >        1 </v>
  <v type="int" >        2 </v>
 </varray>
 <kpoints>
  <generation param="Monkhorst-Pack">
   <v type="int" name="divisions">       3        3        1 </v>
   <v name="usershift">      0.00000000       0.00000000       0.00000000 </v>
   <v name="genvec1">      0.33333333       0.00000000      -0.00000000 </v>
   <v name="genvec2">      0.00000000       0.33333333       0.00000000 </v>
   <v name="genvec3">      0.00000000       0.00000000       1.00000000 </v>
   <v name="shift">      0.00000000       0.00000000       0.00000000 </v>
  </generation>
  <varray name="kpointlist" >
   <v>       0.00000000       0.00000000       0.00000000 </v>
   <v>       0.33333333       0.00000000       0.00000000 </v>
   <v>       0.33333333       0.33333333       0.00000000 </v>
   <v>      -0.33333333       0.33333333       0.00000000 </v>
  </varray>
  <varray name="weights" >
   <v>       0.11111111 </v>
   <v>       0.44444444 </v>
   <v>       0.22222222 </v>
   <v>       0.22222222 </v>
  </varray>
 </kpoints>
 <parameters>
  <separator name="general" >
   <i type="string" name="SYSTEM">phonon</i>
   <i type="logical" name="LCOMPAT"> F  </i>
  </separator>
  <separator name="electronic" >
   <i type="string" name="PREC">n</i>
   <i name="ENMAX">    400.00000000</i>
   <i name="ENAUG">    644.87300000</i>
   <i name="EDIFF">      0.00010000</i>
   <i type="int" name="IALGO">    48</i>
   <i type="int" name="IWAVPR">    11</i>
   <i type="int" name="NBANDS">    14</i>
   <i name="NELECT">      8.00000000</i>
   <i type="int" name="TURBO">     0</i>
   <i type="int" name="IRESTART">     0</i>
   <i type="int" name="NREBOOT">     0</i>
   <i type="int" name="NMIN">     0</i>
   <i name="EREF">      0.00000000</i>
   <separator name="electronic smearing" >
    <i type="int" name="ISMEAR">     1</i>
    <i name="SIGMA">      0.20000000</i>
    <i name="KSPACING">      0.50000000</i>
    <i type="logical" name="KGAMMA"> T  </i>
   </separator>
   <separator name="electronic projectors" >
    <i type="logical" name="LREAL"> T  </i>
    <v name="ROPT">     -0.00050000</v>
    <i type="int" name="LMAXPAW">  -100</i>
    <i type="int" name="LMAXMIX">     2</i>
    <i type="logical" name="NLSPLINE"> F  </i>
   </separator>
   <separator name="electronic startup" >
    <i type="int" name="ISTART">     0</i>
    <i type="int" name="ICHARG">     2</i>
    <i type="int" name="INIWAV">     1</i>
   </separator>
   <separator name="electronic spin" >
    <i type="int" name="ISPIN">     1</i>
    <i type="logical" name="LNONCOLLINEAR"> F  </i>
    <v name="MAGMOM">      1.00000000      1.00000000</v>
    <i name="NUPDOWN">     -1.00000000</i>
    <i type="logical" name="LSORBIT"> F  </i>
    <v name="SAXIS">      0.00000000      0.00000000      1.00000000</v>
    <i type="logical" name="LSPIRAL"> F  </i>
    <v name="QSPIRAL">      0.00000000      0.00000000      0.00000000</v>
    <i type="logical" name="LZEROZ"> F  </i>
   </separator>
   <separator name="electronic exchange-correlation" >
    <i type="logical" name="LASPH"> F  </i>
    <i type="logical" name="LMETAGGA"> F  </i>
   </separator>
   <separator name="electronic convergence" >
    <i type="int" name="NELM">    60</i>
    <i type="int" name="NELMDL">   -12</i>
    <i type="int" name="NELMIN">     4</i>
    <i name="ENINI">    400.00000000</i>
    <separator name="electronic convergence detail" >
     <i type="logical" name="LDIAG"> T  </i>
     <i type="logical" name="LSUBROT"> F  </i>
     <i name="WEIMIN">      0.00100000</i>
     <i name="EBREAK">      0.00000179</i>
     <i name="DEPER">      0.30000000</i>
     <i type="int" name="NRMM">     4</i>
     <i name="TIME">      0.40000000</i>
    </separator>
   </separator>
   <separator name="electronic mixer" >
    <i name="AMIX">      0.40000000</i>
    <i name="BMIX">      1.00000000</i>
    <i name="AMIN">      0.10000000</i>
    <i name="AMIX_MAG">      1.60000000</i>
    <i name="BMIX_MAG">      1.00000000</i>
    <separator name="electronic mixer details" >
     <i type="int" name="IMIX">     4</i>
     <i type="logical" name="MIXFIRST"> F  </i>
     <i type="int" name="MAXMIX">   -45</i>
     <i name="WC">    100.00000000</i>
     <i type="int" name="INIMIX">     1</i>
     <i type="int" name="MIXPRE">     1</i>
     <i type="int" name="MREMOVE">     5</i>
    </separator>
   </separator>
   <separator name="electronic dipolcorrection" >
    <i type="logical" name="LDIPOL"> F  </i>
    <i type="logical" name="LMONO"> F  </i>
    <i type="int" name="IDIPOL">     0</i>
    <i name="EPSILON">      1.00000000</i>
    <v name="DIPOL">   -100.00000000   -100.00000000   -100.00000000</v>
    <i name="EFIELD">      0.00000000</i>
   </separator>
  </separator>
  <separator name="grids" >
   <i type="int" name="NGX">    12</i>
   <i type="int" name="NGY">    12</i>
   <i type="int" name="NGZ">    60</i>
   <i type="int" name="NGXF">    24</i>
   <i type="int" name="NGYF">    24</i>
   <i type="int" name="NGZF">   120</i>
   <i type="logical" name="ADDGRID"> T  </i>
  </separator>
  <separator name="ionic" >
   <i type="int" name="NSW">    61</i>
   <i type="int" name="IBRION">     5</i>
   <i type="int" name="MDALGO">     0</i>
   <i type="int" name="ISIF">     2</i>
   <i name="PSTRESS">      0.00000000</i>
   <i name="EDIFFG">      0.00100000</i>
   <i type="int" name="NFREE">     2</i>
   <i name="POTIM">      0.01000000</i>
   <i name="SMASS">     -3.00000000</i>
   <i name="SCALEE">      1.00000000</i>
  </separator>
  <separator name="ionic md" >
   <i name="TEBEG">      0.00010000</i>
   <i name="TEEND">      0.00010000</i>
   <i type="int" name="NBLOCK">     1</i>
   <i type="int" name="KBLOCK">    61</i>
   <i type="int" name="NPACO">   256</i>
   <i name="APACO">     16.00000000</i>
  </separator>
  <separator name="symmetry" >
   <i type="int" name="ISYM">     2</i>
   <i name="SYMPREC">      0.00001000</i>
  </separator>
  <separator name="dos" >
   <i type="int" name="LORBIT">     0</i>
   <v name="RWIGS">     -1.00000000</v>
   <i type="int" name="NEDOS">   301</i>
   <i name="EMIN">     10.00000000</i>
   <i name="EMAX">    -10.00000000</i>
   <i name="EFERMI">      0.00000000</i>
  </separator>
  <separator name="writing" >
   <i type="int" name="NWRITE">     3</i>
   <i type="logical" name="LWAVE"> F  </i>
   <i type="logical" name="LDOWNSAMPLE"> F  </i>
   <i type="logical" name="LCHARG"> F  </i>
   <i type="logical" name="LPARD"> F  </i>
   <i type="logical" name="LVTOT"> F  </i>
   <i type="logical" name="LVHAR"> F  </i>
   <i type="logical" name="LELF"> F  </i>
   <i type="logical" name="LOPTICS"> F  </i>
   <v name="STM">      0.00000000      0.00000000      0.00000000      0.00000000      0.00000000      0.00000000      0.00000000</v>
  </separator>
  <separator name="performance" >
   <i type="int" name="NPAR">     7</i>
   <i type="int" name="NSIM">     4</i>
   <i type="int" name="NBLK">    -1</i>
   <i type="logical" name="LPLANE"> T  </i>
   <i type="logical" name="LSCALAPACK"> F  </i>
   <i type="logical" name="LSCAAWARE"> F  </i>
   <i type="logical" name="LSCALU"> F  </i>
   <i type="logical" name="LASYNC"> F  </i>
   <i type="logical" name="LORBITALREAL"> F  </i>
  </separator>
  <separator name="miscellaneous" >
   <i type="int" name="IDIOT">     3</i>
   <i type="int" name="ISPECIAL">     0</i>
   <i type="logical" name="LMUSIC"> F  </i>
   <v name="POMASS">     12.01100000</v>
   <v name="DARWINR">      0.00000000</v>
   <v name="DARWINV">      1.00000000</v>
   <i type="logical" name="LCORR"> T  </i>
  </separator>
  <i type="logical" name="GGA_COMPAT"> T  </i>
  <i type="logical" name="LBERRY"> F  </i>
  <i type="int" name="ICORELEVEL">     0</i>
  <i type="logical" name="LDAU"> F  </i>
  <i type="int" name="I_CONSTRAINED_M">     0</i>
  <separator name="electronic exchange-correlation" >
   <i type="string" name="GGA">--</i>
   <i type="int" name="VOSKOWN">     0</i>
   <i type="logical" name="LHFCALC"> F  </i>
   <i type="string" name="PRECFOCK"></i>
   <i type="logical" name="LSYMGRAD"> F  </i>
   <i type="logical" name="LHFONE"> F  </i>
   <i type="logical" name="LRHFCALC"> F  </i>
   <i type="logical" name="LTHOMAS"> F  </i>
   <i type="logical" name="LMODELHF"> F  </i>
   <i name="ENCUT4O">     -1.00000000</i>
   <i type="int" name="EXXOEP">     0</i>
   <i type="int" name="FOURORBIT">     0</i>
   <i name="AEXX">      0.00000000</i>
   <i name="HFALPHA">      0.00000000</i>
   <i name="MCALPHA">      0.00000000</i>
   <i name="ALDAX">      1.00000000</i>
   <i name="AGGAX">      1.00000000</i>
   <i name="ALDAC">      1.00000000</i>
   <i name="AGGAC">      1.00000000</i>
   <i type="int" name="NKREDX">     1</i>
   <i type="int" name="NKREDY">     1</i>
   <i type="int" name="NKREDZ">     1</i>
   <i type="logical" name="SHIFTRED"> F  </i>
   <i type="logical" name="ODDONLY"> F  </i>
   <i type="logical" name="EVENONLY"> F  </i>
   <i type="int" name="LMAXFOCK">     0</i>
   <i type="int" name="NMAXFOCKAE">     0</i>
   <i type="logical" name="LFOCKAEDFT"> F  </i>
   <i name="HFSCREEN">      0.00000000</i>
   <i name="HFSCREENC">      0.00000000</i>
   <i type="int" name="NBANDSGWLOW">     0</i>
  </separator>
  <separator name="vdW DFT" >
   <i type="logical" name="LUSE_VDW"> F  </i>
   <i name="Zab_VDW">     -0.84910000</i>
   <i name="PARAM1">      0.12340000</i>
   <i name="PARAM2">      1.00000000</i>
   <i name="PARAM3">      0.00000000</i>
  </separator>
  <separator name="model GW" >
   <i type="int" name="MODEL_GW">     0</i>
   <i name="MODEL_EPS0">     19.20519663</i>
   <i name="MODEL_ALPHA">      1.00000000</i>
  </separator>
  <separator name="linear response parameters" >
   <i type="logical" name="LEPSILON"> F  </i>
   <i type="logical" name="LRPA"> F  </i>
   <i type="logical" name="LNABLA"> F  </i>
   <i type="logical" name="LVEL"> F  </i>
   <i type="int" name="KINTER">     0</i>
   <i name="CSHIFT">      0.10000000</i>
   <i name="OMEGAMAX">     -1.00000000</i>
   <i name="DEG_THRESHOLD">      0.00200000</i>
   <i name="RTIME">     -0.10000000</i>
   <i name="WPLASMAI">      0.00000000</i>
   <v name="DFIELD">      0.00000000      0.00000000      0.00000000</v>
   <v name="WPLASMA">      0.00000000      0.00000000      0.00000000      0.00000000      0.00000000      0.00000000      0.00000000      0.00000000      0.00000000</v>
  </separator>
  <separator name="orbital magnetization" >
   <i type="logical" name="NUCIND"> F  </i>
   <v name="MAGPOS">      0.00000000      0.00000000      0.00000000</v>
   <i type="logical" name="LNICSALL"> T  </i>
   <i type="logical" name="ORBITALMAG"> F  </i>
   <i type="logical" name="LMAGBLOCH"> F  </i>
   <i type="logical" name="LCHIMAG"> F  </i>
   <i type="logical" name="LGAUGE"> T  </i>
   <i type="int" name="MAGATOM">     0</i>
   <v name="MAGDIPOL">      0.00000000      0.00000000      0.00000000</v>
   <v name="AVECCONST">      0.00000000      0.00000000      0.00000000</v>
  </separator>
  <separator name="response functions" >
   <i type="logical" name="LADDER"> F  </i>
   <i type="logical" name="LRPAFORCE"> F  </i>
   <i type="logical" name="LFXC"> F  </i>
   <i type="logical" name="LHARTREE"> T  </i>
   <i type="int" name="IBSE">     0</i>
   <v type="int" name="KPOINT">    -1     0     0     0</v>
   <i type="logical" name="LTCTE"> F  </i>
   <i type="logical" name="LTETE"> F  </i>
   <i type="logical" name="LTRIPLET"> F  </i>
   <i type="logical" name="LFXCEPS"> F  </i>
   <i type="logical" name="LFXHEG"> F  </i>
   <i type="int" name="NATURALO">     2</i>
   <i type="logical" name="L2ORDER"> F  </i>
   <i type="logical" name="LMP2LT"> F  </i>
   <i type="logical" name="LUSEW"> F  </i>
   <i name="ENCUTGW">     -2.00000000</i>
   <i name="ENCUTGWSOFT">     -2.00000000</i>
   <i name="ENCUTLF">     -1.00000000</i>
   <i type="int" name="LMAXMP2">    -1</i>
   <i name="SCISSOR">      0.00000000</i>
   <i type="int" name="NOMEGA">     0</i>
   <i type="int" name="NOMEGAR">     0</i>
   <i type="int" name="NBANDSGW">    -1</i>
   <i type="int" name="NBANDSO">    -1</i>
   <i type="int" name="NBANDSV">    -1</i>
   <i type="int" name="NELM">     1</i>
   <i type="int" name="NELMHF">     1</i>
   <i type="int" name="DIM">     3</i>
   <i type="int" name="ANTIRES">     0</i>
   <i name="OMEGAMAX">    -30.00000000</i>
   <i name="OMEGAMIN">    -30.00000000</i>
   <i name="OMEGATL">   -200.00000000</i>
   <i type="int" name="OMEGAGRID">   140</i>
   <i name="CSHIFT">     -0.10000000</i>
   <i type="logical" name="SELFENERGY"> F  </i>
   <i type="logical" name="LSPECTRAL"> F  </i>
   <i type="logical" name="LSPECTRALGW"> F  </i>
   <i type="logical" name="LSINGLES"> F  </i>
   <i type="logical" name="LFERMIGW"> F  </i>
   <i type="logical" name="ODDONLYGW"> F  </i>
   <i type="logical" name="EVENONLYGW"> F  </i>
   <i type="int" name="NKREDLFX">     1</i>
   <i type="int" name="NKREDLFY">     1</i>
   <i type="int" name="NKREDLFZ">     1</i>
   <i type="int" name="MAXMEM">  2800</i>
   <i type="int" name="TELESCOPE">     0</i>
   <i type="int" name="TAUPAR">     1</i>
   <i type="int" name="OMEGAPAR">    -1</i>
   <i name="LAMBDA">      1.00000000</i>
  </separator>
  <separator name="External order field" >
   <i name="OFIELD_KAPPA">      0.00000000</i>
   <v name="OFIELD_K">      0.00000000      0.00000000      0.00000000</v>
   <i name="OFIELD_Q6_NEAR">      0.00000000</i>
   <i name="OFIELD_Q6_FAR">      0.00000000</i>
   <i name="OFIELD_A">      0.00000000</i>
  </separator>
 </parameters>
 <atominfo>
  <atoms>       2 </atoms>
  <types>       1 </types>
  <array name="atoms" >
   <dimension dim="1">ion</dimension>
   <field type="string">element</field>
   <field type="int">atomtype</field>
   <set>
    <rc><c>C </c><c>   1</c></rc>
    <rc><c>C </c><c>   1</c></rc>
   </set>
  </array>
  <array name="atomtypes" >
   <dimension dim="1">type</dimension>
   <field type="int">atomspertype</field>
   <field type="string">element</field>
   <field>mass</field>
   <field>valence</field>
   <field type="string">pseudopotential</field>
   <set>
    <rc><c>   2</c><c>C </c><c>     12.01100000</c><c>      4.00000000</c><c> PAW_PBE C 08Apr2002                    </c></rc>
   </set>
  </array>
 </atominfo>
 <structure name="initialpos" >
  <crystal>
   <varray name="basis" >
    <v>       2.48194877       0.00000000       0.00000000 </v>
    <v>      -1.24097438       2.14943068       0.00000000 </v>
    <v>       0.00000000       0.00000000      12.00000000 </v>
   </varray>
   <i name="volume">     64.01732211 </i>
   <varray name="rec_basis" >
    <v>       0.40290920       0.23261974      -0.00000000 </v>
    <v>       0.00000000       0.46523947      -0.00000000 </v>
    <v>       0.00000000       0.00000000       0.08333333 </v>
   </varray>
  </crystal>
  <varray name="positions" >
   <v>       0.00000000       0.00000000       0.14167000 </v>
   <v>       0.33333001       0.66667002       0.14167000 </v>
  </varray>
 </structure>
 <calculation>
  <scstep>
   <time name="diag">    0.01    0.04</time>
   <time name="diis">    0.02    0.18</time>
   <time name="orth">    0.01    0.01</time>
   <time name="total">    0.05    0.24</time>
   <energy>
    <i name="alphaZ">      5.09113229 </i>
    <i name="ewald">    551.13459490 </i>
    <i name="hartreedc">   -777.05864006 </i>
    <i name="XCdc">     27.46714398 </i>
    <i name="pawpsdc">     75.66288619 </i>
    <i name="pawaedc">    -77.96384553 </i>
    <i name="eentropy">     -0.01253755 </i>
    <i name="bandstr">    -21.98564055 </i>
    <i name="atom">    294.25444774 </i>
    <i name="e_fr_energy">     76.58954143 </i>
    <i name="e_wo_entrp">     76.60207897 </i>
    <i name="e_0_energy">     76.59372061 </i>
   </energy>
  </scstep>
  <scstep>
   <time name="diag">    0.01    0.02</time>
   <time name="diis">    0.02    0.18</time>
   <time name="orth">    0.02    0.02</time>
   <time name="total">    0.06    0.23</time>
   <energy>
    <i name="e_fr_energy">     15.40931958 </i>
    <i name="e_wo_entrp">     15.39580917 </i>
    <i name="e_0_energy">     15.40481611 </i>
   </energy>
  </scstep>
  <scstep>
   <time name="diag">    0.01    0.02</time>
   <time name="diis">    0.03    0.19</time>
   <time name="orth">    0.01    0.01</time>
   <time name="total">    0.05    0.23</time>
   <energy>
    <i name="e_fr_energy">    -11.88737244 </i>
    <i name="e_wo_entrp">    -11.88257353 </i>
    <i name="e_0_energy">    -11.88577281 </i>
   </energy>
  </scstep>
  <scstep>
   <time name="diag">    0.01    0.03</time>
   <time name="diis">    0.02    0.19</time>
   <time name="orth">    0.01    0.01</time>
   <time name="total">    0.04    0.22</time>
   <energy>
    <i name="e_fr_energy">    -17.81421163 </i>
    <i name="e_wo_entrp">    -17.81032664 </i>
    <i name="e_0_energy">    -17.81291663 </i>
   </energy>
  </scstep>
  <scstep>
   <time name="diag">    0.02    0.04</time>
   <time name="diis">    0.02    0.17</time>
   <time name="orth">    0.02    0.02</time>
   <time name="total">    0.07    0.23</time>
   <energy>
    <i name="e_fr_energy">    -18.81336052 </i>
    <i name="e_wo_entrp">    -18.79077708 </i>
    <i name="e_0_energy">    -18.80583270 </i>
   </energy>
  </scstep>
  <scstep>
   <time name="diag">    0.02    0.03</time>
   <time name="diis">    0.02    0.19</time>
   <time name="orth">    0.02    0.02</time>
   <time name="total">    0.06    0.24</time>
   <energy>
    <i name="e_fr_energy">    -19.06346748 </i>
    <i name="e_wo_entrp">    -19.03857689 </i>
    <i name="e_0_energy">    -19.05517061 </i>
   </energy>
  </scstep>
  <scstep>
   <time name="diag">    0.02    0.03</time>
   <time name="diis">    0.02    0.18</time>
   <time name="orth">    0.02    0.02</time>
   <time name="total">    0.07    0.24</time>
   <energy>
    <i name="e_fr_energy">    -19.12548723 </i>
    <i name="e_wo_entrp">    -19.10042337 </i>
    <i name="e_0_energy">    -19.11713261 </i>
   </energy>
  </scstep>
  <scstep>
   <time name="diag">    0.02    0.03</time>
   <time name="diis">    0.03    0.19</time>
   <time name="orth">    0.05    0.05</time>
   <time name="total">    0.10    0.27</time>
   <energy>
    <i name="e_fr_energy">    -19.14162291 </i>
    <i name="e_wo_entrp">    -19.11654835 </i>
    <i name="e_0_energy">    -19.13326472 </i>
   </energy>
  </scstep>
  <scstep>
   <time name="diag">    0.01    0.03</time>
   <time name="diis">    0.05    0.19</time>
   <time name="orth">    0.03    0.03</time>
   <time name="total">    0.10    0.25</time>
   <energy>
    <i name="e_fr_energy">    -19.14696657 </i>
    <i name="e_wo_entrp">    -19.12189148 </i>
    <i name="e_0_energy">    -19.13860821 </i>
   </energy>
  </scstep>
  <scstep>
   <time name="diag">    0.01    0.02</time>
   <time name="diis">    0.04    0.19</time>
   <time name="orth">    0.01    0.01</time>
   <time name="total">    0.06    0.22</time>
   <energy>
    <i name="e_fr_energy">    -19.14748427 </i>
    <i name="e_wo_entrp">    -19.12240919 </i>
    <i name="e_0_energy">    -19.13912591 </i>
   </energy>
  </scstep>
  <scstep>
   <time name="diag">    0.01    0.03</time>
   <time name="diis">    0.04    0.19</time>
   <time name="orth">    0.01    0.01</time>
   <time name="total">    0.06    0.23</time>
   <energy>
    <i name="e_fr_energy">    -19.14750786 </i>
    <i name="e_wo_entrp">    -19.12243279 </i>
    <i name="e_0_energy">    -19.13914951 </i>
   </energy>
  </scstep>
  <scstep>
   <time name="diag">    0.02    0.03</time>
   <time name="diis">    0.04    0.19</time>
   <time name="orth">    0.01    0.01</time>
   <time name="total">    0.08    0.25</time>
   <energy>
    <i name="e_fr_energy">    -19.14751062 </i>
    <i name="e_wo_entrp">    -19.12243555 </i>
    <i name="e_0_energy">    -19.13915227 </i>
   </energy>
  </scstep>
  <scstep>
   <time name="diag">    0.02    0.03</time>
   <time name="diis">    0.05    0.19</time>
   <time name="orth">    0.01    0.01</time>
   <time name="total">    0.10    0.24</time>
   <energy>
    <i name="e_fr_energy">    -18.26307674 </i>
    <i name="e_wo_entrp">    -18.23800165 </i>
    <i name="e_0_energy">    -18.25471837 </i>
   </energy>
  </scstep>
  <scstep>
   <time name="diag">    0.05    0.06</time>
   <time name="diis">    0.04    0.17</time>
   <time name="orth">    0.01    0.01</time>
   <time name="total">    0.12    0.25</time>
   <energy>
    <i name="e_fr_energy">    -17.92007156 </i>
    <i name="e_wo_entrp">    -17.89499647 </i>
    <i name="e_0_energy">    -17.91171320 </i>
   </energy>
  </scstep>
  <scstep>
   <time name="diag">    0.03    0.04</time>
   <time name="diis">    0.05    0.17</time>
   <time name="orth">    0.01    0.01</time>
   <time name="total">    0.11    0.25</time>
   <energy>
    <i name="e_fr_energy">    -17.91152303 </i>
    <i name="e_wo_entrp">    -17.88644794 </i>
    <i name="e_0_energy">    -17.90316467 </i>
   </energy>
  </scstep>
  <scstep>
   <time name="diag">    0.02    0.03</time>
   <time name="diis">    0.04    0.16</time>
   <time name="orth">    0.01    0.01</time>
   <time name="total">    0.09    0.22</time>
   <energy>
    <i name="e_fr_energy">    -17.90968795 </i>
    <i name="e_wo_entrp">    -17.88461287 </i>
    <i name="e_0_energy">    -17.90132959 </i>
   </energy>
  </scstep>
  <scstep>
   <time name="diag">    0.01    0.02</time>
   <time name="diis">    0.04    0.17</time>
   <time name="orth">    0.01    0.01</time>
   <time name="total">    0.08    0.22</time>
   <energy>
    <i name="e_fr_energy">    -17.90704306 </i>
    <i name="e_wo_entrp">    -17.88196798 </i>
    <i name="e_0_energy">    -17.89868470 </i>
   </energy>
  </scstep>
  <scstep>
   <time name="diag">    0.03    0.04</time>
   <time name="diis">    0.04    0.17</time>
   <time name="orth">    0.01    0.01</time>
   <time name="total">    0.09    0.23</time>
   <energy>
    <i name="e_fr_energy">    -17.90820946 </i>
    <i name="e_wo_entrp">    -17.88313438 </i>
    <i name="e_0_energy">    -17.89985110 </i>
   </energy>
  </scstep>
  <scstep>
   <time name="diag">    0.01    0.02</time>
   <time name="diis">    0.03    0.16</time>
   <time name="orth">    0.01    0.01</time>
   <time name="total">    0.07    0.21</time>
   <energy>
    <i name="e_fr_energy">    -17.90941437 </i>
    <i name="e_wo_entrp">    -17.88433929 </i>
    <i name="e_0_energy">    -17.90105601 </i>
   </energy>
  </scstep>
  <scstep>
   <time name="diag">    0.03    0.04</time>
   <time name="diis">    0.03    0.16</time>
   <time name="orth">    0.01    0.01</time>
   <time name="total">    0.09    0.23</time>
   <energy>
    <i name="e_fr_energy">    -17.91001497 </i>
    <i name="e_wo_entrp">    -17.88493989 </i>
    <i name="e_0_energy">    -17.90165661 </i>
   </energy>
  </scstep>
  <scstep>
   <time name="diag">    0.03    0.04</time>
   <time name="diis">    0.03    0.15</time>
   <time name="orth">    0.01    0.01</time>
   <time name="total">    0.08    0.22</time>
   <energy>
    <i name="alphaZ">      5.09113229 </i>
    <i name="ewald">    551.13459490 </i>
    <i name="hartreedc">   -808.23775966 </i>
    <i name="XCdc">     28.66773575 </i>
    <i name="pawpsdc">    137.45427796 </i>
    <i name="pawaedc">   -140.02552419 </i>
    <i name="eentropy">     -0.02507508 </i>
    <i name="bandstr">    -86.22384741 </i>
    <i name="atom">    294.25444774 </i>
    <i name="e_fr_energy">    -17.91001769 </i>
    <i name="e_wo_entrp">    -17.88494261 </i>
    <i name="e_0_energy">    -17.90165933 </i>
   </energy>
  </scstep>
  <structure>
   <crystal>
    <varray name="basis" >
     <v>       2.48194877       0.00000000       0.00000000 </v>
     <v>      -1.24097438       2.14943068       0.00000000 </v>
     <v>       0.00000000       0.00000000      12.00000000 </v>
    </varray>
    <i name="volume">     64.01732211 </i>
    <varray name="rec_basis" >
     <v>       0.40290920       0.23261974      -0.00000000 </v>
     <v>       0.00000000       0.46523947      -0.00000000 </v>
     <v>       0.00000000       0.00000000       0.08333333 </v>
    </varray>
   </crystal>
   <varray name="positions" >
    <v>       0.00000000       0.00000000       0.14167000 </v>
    <v>       0.33333001       0.66667002       0.14167000 </v>
   </varray>
  </structure>
  <varray name="forces" >
   <v>       0.00223791      -0.00129206       0.00000000 </v>
   <v>      -0.00223791       0.00129206       0.00000000 </v>
  </varray>
  <varray name="stress" >
   <v>     -12.74958012      -0.04440109      -0.00000000 </v>
   <v>      -0.04440109     -12.80085009      -0.00000000 </v>
   <v>      -0.00000000      -0.00000000      -7.10925210 </v>
  </varray>
  <energy>
   <i name="e_fr_energy">    -17.91001769 </i>
   <i name="e_wo_entrp">    -17.90165933 </i>
   <i name="e_0_energy">     -0.02507508 </i>
  </energy>
  <kpoints>
   <generation param="Monkhorst-Pack">
    <v type="int" name="divisions">       3        3        1 </v>
    <v name="usershift">      0.00000000       0.00000000       0.00000000 </v>
    <v name="genvec1">      0.33333333       0.00000000      -0.00000000 </v>
    <v name="genvec2">      0.00000000       0.33333333       0.00000000 </v>
    <v name="genvec3">      0.00000000       0.00000000       1.00000000 </v>
    <v name="shift">      0.00000000       0.00000000       0.00000000 </v>
   </generation>
   <varray name="kpointlist" >
    <v>       0.00000000       0.00000000       0.00000000 </v>
    <v>       0.33333333       0.00000000       0.00000000 </v>
    <v>       0.00000000       0.33333333       0.00000000 </v>
    <v>       0.33333333       0.33333333       0.00000000 </v>
    <v>      -0.33333333       0.33333333       0.00000000 </v>
   </varray>
   <varray name="weights" >
    <v>       0.11111111 </v>
    <v>       0.22222222 </v>
    <v>       0.22222222 </v>
    <v>       0.22222222 </v>
    <v>       0.22222222 </v>
   </varray>
  </kpoints>
  <time name="totalsc">    1.94    6.53</time>
 </calculation>
 <calculation>
  <scstep>
   <time name="diag">    0.03    0.04</time>
   <time name="diis">    0.06    0.21</time>
   <time name="orth">    0.03    0.03</time>
   <time name="total">    0.14    0.31</time>
   <energy>
    <i name="alphaZ">      5.09113229 </i>
    <i name="ewald">    551.14333862 </i>
    <i name="hartreedc">   -808.24797569 </i>
    <i name="XCdc">     28.66821638 </i>
    <i name="pawpsdc">    137.45997572 </i>
    <i name="pawaedc">   -140.03127077 </i>
    <i name="eentropy">     -0.01640615 </i>
    <i name="bandstr">    -86.23777664 </i>
    <i name="atom">    294.25444774 </i>
    <i name="e_fr_energy">    -17.91631850 </i>
    <i name="e_wo_entrp">    -17.89991235 </i>
    <i name="e_0_energy">    -17.91084978 </i>
   </energy>
  </scstep>
  <scstep>
   <time name="diag">    0.03    0.04</time>
   <time name="diis">    0.05    0.18</time>
   <time name="orth">    0.02    0.02</time>
   <time name="total">    0.12    0.27</time>
   <energy>
    <i name="e_fr_energy">    -17.91425838 </i>
    <i name="e_wo_entrp">    -17.89595464 </i>
    <i name="e_0_energy">    -17.90815713 </i>
   </energy>
  </scstep>
  <scstep>
   <time name="diag">    0.02    0.03</time>
   <time name="diis">    0.06    0.22</time>
   <time name="orth">    0.04    0.04</time>
   <time name="total">    0.13    0.31</time>
   <energy>
    <i name="e_fr_energy">    -17.91385456 </i>
    <i name="e_wo_entrp">    -17.89422839 </i>
    <i name="e_0_energy">    -17.90731251 </i>
   </energy>
  </scstep>
  <scstep>
   <time name="diag">    0.02    0.03</time>
   <time name="diis">    0.03    0.18</time>
   <time name="orth">    0.01    0.01</time>
   <time name="total">    0.08    0.24</time>
   <energy>
    <i name="alphaZ">      5.09113229 </i>
    <i name="ewald">    551.14333862 </i>
    <i name="hartreedc">   -808.26022504 </i>
    <i name="XCdc">     28.66921103 </i>
    <i name="pawpsdc">    137.48118092 </i>
    <i name="pawaedc">   -140.05242326 </i>
    <i name="eentropy">     -0.01940495 </i>
    <i name="bandstr">    -86.22112492 </i>
    <i name="atom">    294.25444774 </i>
    <i name="e_fr_energy">    -17.91386757 </i>
    <i name="e_wo_entrp">    -17.89446261 </i>
    <i name="e_0_energy">    -17.90739925 </i>
   </energy>
  </scstep>
  <structure>
   <crystal>
    <varray name="basis" >
     <v>       2.48194877       0.00000000       0.00000000 </v>
     <v>      -1.24097438       2.14943068       0.00000000 </v>
     <v>       0.00000000       0.00000000      12.00000000 </v>
    </varray>
    <i name="volume">     64.01732211 </i>
    <varray name="rec_basis" >
     <v>       0.40290920       0.23261974      -0.00000000 </v>
     <v>       0.00000000       0.46523947      -0.00000000 </v>
     <v>       0.00000000       0.00000000       0.08333333 </v>
    </varray>
   </crystal>
   <varray name="positions" >
    <v>       0.00402909       0.00000000       0.14167000 </v>
    <v>       0.33333001       0.66667002       0.14167000 </v>
   </varray>
  </structure>
  <varray name="forces" >
   <v>       0.74282229      -0.01231993       0.00000000 </v>
   <v>      -0.74282229       0.01231993       0.00000000 </v>
  </varray>
  <varray name="stress" >
   <v>     -12.92114525      28.47101899      -0.00000000 </v>
   <v>      28.47101899     -12.95746096      -0.00000000 </v>
   <v>      -0.00000000      -0.00000000      -7.27692825 </v>
  </varray>
  <energy>
   <i name="e_fr_energy">    -17.91386757 </i>
   <i name="e_wo_entrp">    -17.90739925 </i>
   <i name="e_0_energy">     -0.01940495 </i>
  </energy>
  <kpoints>
   <generation param="Monkhorst-Pack">
    <v type="int" name="divisions">       3        3        1 </v>
    <v name="usershift">      0.00000000       0.00000000       0.00000000 </v>
    <v name="genvec1">      0.33333333       0.00000000      -0.00000000 </v>
    <v name="genvec2">      0.00000000       0.33333333       0.00000000 </v>
    <v name="genvec3">      0.00000000       0.00000000       1.00000000 </v>
    <v name="shift">      0.00000000       0.00000000       0.00000000 </v>
   </generation>
   <varray name="kpointlist" >
    <v>       0.00000000       0.00000000       0.00000000 </v>
    <v>       0.33333333       0.00000000       0.00000000 </v>
    <v>       0.00000000       0.33333333       0.00000000 </v>
    <v>       0.33333333       0.33333333       0.00000000 </v>
    <v>      -0.33333333       0.33333333       0.00000000 </v>
   </varray>
   <varray name="weights" >
    <v>       0.11111111 </v>
    <v>       0.22222222 </v>
    <v>       0.22222222 </v>
    <v>       0.22222222 </v>
    <v>       0.22222222 </v>
   </varray>
  </kpoints>
  <time name="totalsc">    0.80    3.13</time>
 </calculation>
 <calculation>
  <scstep>
   <time name="diag">    0.02    0.03</time>
   <time name="diis">    0.05    0.18</time>
   <time name="orth">    0.01    0.02</time>
   <time name="total">    0.10    0.24</time>
   <energy>
    <i name="alphaZ">      5.09113229 </i>
    <i name="ewald">    551.14329526 </i>
    <i name="hartreedc">   -808.24883259 </i>
    <i name="XCdc">     28.66821659 </i>
    <i name="pawpsdc">    137.48193093 </i>
    <i name="pawaedc">   -140.05317796 </i>
    <i name="eentropy">     -0.01313840 </i>
    <i name="bandstr">    -86.24735325 </i>
    <i name="atom">    294.25444774 </i>
    <i name="e_fr_energy">    -17.92347938 </i>
    <i name="e_wo_entrp">    -17.91034098 </i>
    <i name="e_0_energy">    -17.91909991 </i>
   </energy>
  </scstep>
  <scstep>
   <time name="diag">    0.04    0.05</time>
   <time name="diis">    0.05    0.22</time>
   <time name="orth">    0.01    0.01</time>
   <time name="total">    0.11    0.30</time>
   <energy>
    <i name="e_fr_energy">    -17.91545856 </i>
    <i name="e_wo_entrp">    -17.89835351 </i>
    <i name="e_0_energy">    -17.90975688 </i>
   </energy>
  </scstep>
  <scstep>
   <time name="diag">    0.02    0.02</time>
   <time name="diis">    0.05    0.22</time>
   <time name="orth">    0.01    0.01</time>
   <time name="total">    0.09    0.27</time>
   <energy>
    <i name="e_fr_energy">    -17.91378072 </i>
    <i name="e_wo_entrp">    -17.89389023 </i>
    <i name="e_0_energy">    -17.90715056 </i>
   </energy>
  </scstep>
  <scstep>
   <time name="diag">    0.02    0.04</time>
   <time name="diis">    0.05    0.20</time>
   <time name="orth">    0.04    0.04</time>
   <time name="total">    0.12    0.28</time>
   <energy>
    <i name="alphaZ">      5.09113229 </i>
    <i name="ewald">    551.14329526 </i>
    <i name="hartreedc">   -808.26148632 </i>
    <i name="XCdc">     28.66914672 </i>
    <i name="pawpsdc">    137.47958487 </i>
    <i name="pawaedc">   -140.05080475 </i>
    <i name="eentropy">     -0.01938999 </i>
    <i name="bandstr">    -86.21974547 </i>
    <i name="atom">    294.25444774 </i>
    <i name="e_fr_energy">    -17.91381964 </i>
    <i name="e_wo_entrp">    -17.89442965 </i>
    <i name="e_0_energy">    -17.90735631 </i>
   </energy>
  </scstep>
  <structure>
   <crystal>
    <varray name="basis" >
     <v>       2.48194877       0.00000000       0.00000000 </v>
     <v>      -1.24097438       2.14943068       0.00000000 </v>
     <v>       0.00000000       0.00000000      12.00000000 </v>
    </varray>
    <i name="volume">     64.01732211 </i>
    <varray name="rec_basis" >
     <v>       0.40290920       0.23261974      -0.00000000 </v>
     <v>       0.00000000       0.46523947      -0.00000000 </v>
     <v>       0.00000000       0.00000000       0.08333333 </v>
    </varray>
   </crystal>
   <varray name="positions" >
    <v>      -0.00402909       0.00000000       0.14167000 </v>
    <v>       0.33333001       0.66667002       0.14167000 </v>
   </varray>
  </structure>
  <varray name="forces" >
   <v>      -0.74499214      -0.01400062       0.00000000 </v>
   <v>       0.74499214       0.01400062      -0.00000000 </v>
  </varray>
  <varray name="stress" >
   <v>     -12.97317142     -28.95492184      -0.00000000 </v>
   <v>     -28.95492185     -12.89963733      -0.00000000 </v>
   <v>      -0.00000000      -0.00000000      -7.28274845 </v>
  </varray>
  <energy>
   <i name="e_fr_energy">    -17.91381964 </i>
   <i name="e_wo_entrp">    -17.90735631 </i>
   <i name="e_0_energy">     -0.01938999 </i>
  </energy>
  <kpoints>
   <generation param="Monkhorst-Pack">
    <v type="int" name="divisions">       3        3        1 </v>
    <v name="usershift">      0.00000000       0.00000000       0.00000000 </v>
    <v name="genvec1">      0.33333333       0.00000000      -0.00000000 </v>
    <v name="genvec2">      0.00000000       0.33333333       0.00000000 </v>
    <v name="genvec3">      0.00000000       0.00000000       1.00000000 </v>
    <v name="shift">      0.00000000       0.00000000       0.00000000 </v>
   </generation>
   <varray name="kpointlist" >
    <v>       0.00000000       0.00000000       0.00000000 </v>
    <v>       0.33333333       0.00000000       0.00000000 </v>
    <v>       0.00000000       0.33333333       0.00000000 </v>
    <v>       0.33333333       0.33333333       0.00000000 </v>
    <v>      -0.33333333       0.33333333       0.00000000 </v>
   </varray>
   <varray name="weights" >
    <v>       0.11111111 </v>
    <v>       0.22222222 </v>
    <v>       0.22222222 </v>
    <v>       0.22222222 </v>
    <v>       0.22222222 </v>
   </varray>
  </kpoints>
  <time name="totalsc">    0.72    3.11</time>
 </calculation>
 <calculation>
  <scstep>
   <time name="diag">    0.02    0.03</time>
   <time name="diis">    0.06    0.21</time>
   <time name="orth">    0.02    0.02</time>
   <time name="total">    0.14    0.30</time>
   <energy>
    <i name="alphaZ">      5.09113229 </i>
    <i name="ewald">    551.14340179 </i>
    <i name="hartreedc">   -808.25610246 </i>
    <i name="XCdc">     28.66873895 </i>
    <i name="pawpsdc">    137.48020797 </i>
    <i name="pawaedc">   -140.05144908 </i>
    <i name="eentropy">     -0.01594934 </i>
    <i name="bandstr">    -86.23331919 </i>
    <i name="atom">    294.25444774 </i>
    <i name="e_fr_energy">    -17.91889131 </i>
    <i name="e_wo_entrp">    -17.90294197 </i>
    <i name="e_0_energy">    -17.91357486 </i>
   </energy>
  </scstep>
  <scstep>
   <time name="diag">    0.02    0.03</time>
   <time name="diis">    0.05    0.22</time>
   <time name="orth">    0.07    0.07</time>
   <time name="total">    0.14    0.32</time>
   <energy>
    <i name="e_fr_energy">    -17.91466239 </i>
    <i name="e_wo_entrp">    -17.89645801 </i>
    <i name="e_0_energy">    -17.90859427 </i>
   </energy>
  </scstep>
  <scstep>
   <time name="diag">    0.02    0.05</time>
   <time name="diis">    0.07    0.21</time>
   <time name="orth">    0.05    0.05</time>
   <time name="total">    0.16    0.33</time>
   <energy>
    <i name="e_fr_energy">    -17.91384035 </i>
    <i name="e_wo_entrp">    -17.89420199 </i>
    <i name="e_0_energy">    -17.90729423 </i>
   </energy>
  </scstep>
  <scstep>
   <time name="diag">    0.04    0.05</time>
   <time name="diis">    0.04    0.25</time>
   <time name="orth">    0.01    0.01</time>
   <time name="total">    0.09    0.32</time>
   <energy>
    <i name="alphaZ">      5.09113229 </i>
    <i name="ewald">    551.14340179 </i>
    <i name="hartreedc">   -808.26203434 </i>
    <i name="XCdc">     28.66923963 </i>
    <i name="pawpsdc">    137.48096845 </i>
    <i name="pawaedc">   -140.05220702 </i>
    <i name="eentropy">     -0.01942406 </i>
    <i name="bandstr">    -86.21938880 </i>
    <i name="atom">    294.25444774 </i>
    <i name="e_fr_energy">    -17.91386431 </i>
    <i name="e_wo_entrp">    -17.89444025 </i>
    <i name="e_0_energy">    -17.90738962 </i>
   </energy>
  </scstep>
  <structure>
   <crystal>
    <varray name="basis" >
     <v>       2.48194877       0.00000000       0.00000000 </v>
     <v>      -1.24097438       2.14943068       0.00000000 </v>
     <v>       0.00000000       0.00000000      12.00000000 </v>
    </varray>
    <i name="volume">     64.01732211 </i>
    <varray name="rec_basis" >
     <v>       0.40290920       0.23261974      -0.00000000 </v>
     <v>       0.00000000       0.46523947      -0.00000000 </v>
     <v>       0.00000000       0.00000000       0.08333333 </v>
    </varray>
   </crystal>
   <varray name="positions" >
    <v>       0.00232620       0.00465239       0.14167000 </v>
    <v>       0.33333001       0.66667002       0.14167000 </v>
   </varray>
  </structure>
  <varray name="forces" >
   <v>       0.00363192       0.74851583       0.00000000 </v>
   <v>      -0.00363192      -0.74851583      -0.00000000 </v>
  </varray>
  <varray name="stress" >
   <v>      15.48446411       0.11212665      -0.00000000 </v>
   <v>       0.11212664     -41.45349186      -0.00000000 </v>
   <v>      -0.00000000      -0.00000000      -7.30043002 </v>
  </varray>
  <energy>
   <i name="e_fr_energy">    -17.91386431 </i>
   <i name="e_wo_entrp">    -17.90738962 </i>
   <i name="e_0_energy">     -0.01942406 </i>
  </energy>
  <kpoints>
   <generation param="Monkhorst-Pack">
    <v type="int" name="divisions">       3        3        1 </v>
    <v name="usershift">      0.00000000       0.00000000       0.00000000 </v>
    <v name="genvec1">      0.33333333       0.00000000      -0.00000000 </v>
    <v name="genvec2">      0.00000000       0.33333333       0.00000000 </v>
    <v name="genvec3">      0.00000000       0.00000000       1.00000000 </v>
    <v name="shift">      0.00000000       0.00000000       0.00000000 </v>
   </generation>
   <varray name="kpointlist" >
    <v>       0.00000000       0.00000000       0.00000000 </v>
    <v>       0.33333333       0.00000000       0.00000000 </v>
    <v>       0.00000000       0.33333333       0.00000000 </v>
    <v>       0.33333333       0.33333333       0.00000000 </v>
    <v>      -0.33333333       0.33333333       0.00000000 </v>
   </varray>
   <varray name="weights" >
    <v>       0.11111111 </v>
    <v>       0.22222222 </v>
    <v>       0.22222222 </v>
    <v>       0.22222222 </v>
    <v>       0.22222222 </v>
   </varray>
  </kpoints>
  <time name="totalsc">    0.77    3.20</time>
 </calculation>
 <calculation>
  <scstep>
   <time name="diag">    0.02    0.03</time>
   <time name="diis">    0.05    0.23</time>
   <time name="orth">    0.01    0.01</time>
   <time name="total">    0.10    0.29</time>
   <energy>
    <i name="alphaZ">      5.09113229 </i>
    <i name="ewald">    551.14323124 </i>
    <i name="hartreedc">   -808.25020231 </i>
    <i name="XCdc">     28.66823897 </i>
    <i name="pawpsdc">    137.48142334 </i>
    <i name="pawaedc">   -140.05267063 </i>
    <i name="eentropy">     -0.01324147 </i>
    <i name="bandstr">    -86.24586711 </i>
    <i name="atom">    294.25444774 </i>
    <i name="e_fr_energy">    -17.92350794 </i>
    <i name="e_wo_entrp">    -17.91026647 </i>
    <i name="e_0_energy">    -17.91909412 </i>
   </energy>
  </scstep>
  <scstep>
   <time name="diag">    0.01    0.03</time>
   <time name="diis">    0.05    0.23</time>
   <time name="orth">    0.06    0.06</time>
   <time name="total">    0.13    0.34</time>
   <energy>
    <i name="e_fr_energy">    -17.91543996 </i>
    <i name="e_wo_entrp">    -17.89830525 </i>
    <i name="e_0_energy">    -17.90972839 </i>
   </energy>
  </scstep>
  <scstep>
   <time name="diag">    0.02    0.04</time>
   <time name="diis">    0.05    0.28</time>
   <time name="orth">    0.01    0.01</time>
   <time name="total">    0.10    0.34</time>
   <energy>
    <i name="e_fr_energy">    -17.91376562 </i>
    <i name="e_wo_entrp">    -17.89388386 </i>
    <i name="e_0_energy">    -17.90713837 </i>
   </energy>
  </scstep>
  <scstep>
   <time name="diag">    0.02    0.03</time>
   <time name="diis">    0.04    0.19</time>
   <time name="orth">    0.01    0.01</time>
   <time name="total">    0.08    0.24</time>
   <energy>
    <i name="alphaZ">      5.09113229 </i>
    <i name="ewald">    551.14323124 </i>
    <i name="hartreedc">   -808.26217072 </i>
    <i name="XCdc">     28.66915544 </i>
    <i name="pawpsdc">    137.47986971 </i>
    <i name="pawaedc">   -140.05110038 </i>
    <i name="eentropy">     -0.01936647 </i>
    <i name="bandstr">    -86.21900740 </i>
    <i name="atom">    294.25444774 </i>
    <i name="e_fr_energy">    -17.91380855 </i>
    <i name="e_wo_entrp">    -17.89444208 </i>
    <i name="e_0_energy">    -17.90735306 </i>
   </energy>
  </scstep>
  <structure>
   <crystal>
    <varray name="basis" >
     <v>       2.48194877       0.00000000       0.00000000 </v>
     <v>      -1.24097438       2.14943068       0.00000000 </v>
     <v>       0.00000000       0.00000000      12.00000000 </v>
    </varray>
    <i name="volume">     64.01732211 </i>
    <varray name="rec_basis" >
     <v>       0.40290920       0.23261974      -0.00000000 </v>
     <v>       0.00000000       0.46523947      -0.00000000 </v>
     <v>       0.00000000       0.00000000       0.08333333 </v>
    </varray>
   </crystal>
   <varray name="positions" >
    <v>      -0.00232620      -0.00465239       0.14167000 </v>
    <v>       0.33333001       0.66667002       0.14167000 </v>
   </varray>
  </structure>
  <varray name="forces" >
   <v>       0.00200021      -0.73885854       0.00000000 </v>
   <v>      -0.00200021       0.73885854       0.00000000 </v>
  </varray>
  <varray name="stress" >
   <v>     -41.89210104      -0.04618052      -0.00000000 </v>
   <v>      -0.04618050      16.04820412      -0.00000000 </v>
   <v>      -0.00000000      -0.00000000      -7.29903525 </v>
  </varray>
  <energy>
   <i name="e_fr_energy">    -17.91380855 </i>
   <i name="e_wo_entrp">    -17.90735306 </i>
   <i name="e_0_energy">     -0.01936647 </i>
  </energy>
  <kpoints>
   <generation param="Monkhorst-Pack">
    <v type="int" name="divisions">       3        3        1 </v>
    <v name="usershift">      0.00000000       0.00000000       0.00000000 </v>
    <v name="genvec1">      0.33333333       0.00000000      -0.00000000 </v>
    <v name="genvec2">      0.00000000       0.33333333       0.00000000 </v>
    <v name="genvec3">      0.00000000       0.00000000       1.00000000 </v>
    <v name="shift">      0.00000000       0.00000000       0.00000000 </v>
   </generation>
   <varray name="kpointlist" >
    <v>       0.00000000       0.00000000       0.00000000 </v>
    <v>       0.33333333       0.00000000       0.00000000 </v>
    <v>       0.33333333       0.33333333       0.00000000 </v>
    <v>      -0.33333333       0.33333333       0.00000000 </v>
   </varray>
   <varray name="weights" >
    <v>       0.11111111 </v>
    <v>       0.44444444 </v>
    <v>       0.22222222 </v>
    <v>       0.22222222 </v>
   </varray>
  </kpoints>
  <time name="totalsc">    0.71    3.14</time>
 </calculation>
 <calculation>
  <scstep>
   <time name="diag">    0.04    0.05</time>
   <time name="diis">    0.07    0.17</time>
   <time name="orth">    0.01    0.01</time>
   <time name="total">    0.13    0.24</time>
   <energy>
    <i name="alphaZ">      5.09113229 </i>
    <i name="ewald">    551.11941335 </i>
    <i name="hartreedc">   -808.24270975 </i>
    <i name="XCdc">     28.66834269 </i>
    <i name="pawpsdc">    137.48053947 </i>
    <i name="pawaedc">   -140.05179042 </i>
    <i name="eentropy">     -0.02479579 </i>
    <i name="bandstr">    -86.20852982 </i>
    <i name="atom">    294.25444774 </i>
    <i name="e_fr_energy">    -17.91395022 </i>
    <i name="e_wo_entrp">    -17.88915443 </i>
    <i name="e_0_energy">    -17.90568496 </i>
   </energy>
  </scstep>
  <scstep>
   <time name="diag">    0.02    0.03</time>
   <time name="diis">    0.05    0.21</time>
   <time name="orth">    0.02    0.02</time>
   <time name="total">    0.11    0.28</time>
   <energy>
    <i name="e_fr_energy">    -17.91167653 </i>
    <i name="e_wo_entrp">    -17.88674211 </i>
    <i name="e_0_energy">    -17.90336506 </i>
   </energy>
  </scstep>
  <scstep>
   <time name="diag">    0.03    0.04</time>
   <time name="diis">    0.04    0.17</time>
   <time name="orth">    0.03    0.03</time>
   <time name="total">    0.12    0.26</time>
   <energy>
    <i name="e_fr_energy">    -17.90947217 </i>
    <i name="e_wo_entrp">    -17.88440467 </i>
    <i name="e_0_energy">    -17.90111634 </i>
   </energy>
  </scstep>
  <scstep>
   <time name="diag">    0.01    0.03</time>
   <time name="diis">    0.04    0.16</time>
   <time name="orth">    0.04    0.04</time>
   <time name="total">    0.10    0.24</time>
   <energy>
    <i name="e_fr_energy">    -17.90932028 </i>
    <i name="e_wo_entrp">    -17.88424588 </i>
    <i name="e_0_energy">    -17.90096215 </i>
   </energy>
  </scstep>
  <scstep>
   <time name="diag">    0.01    0.02</time>
   <time name="diis">    0.03    0.15</time>
   <time name="orth">    0.01    0.01</time>
   <time name="total">    0.06    0.20</time>
   <energy>
    <i name="e_fr_energy">    -17.90921509 </i>
    <i name="e_wo_entrp">    -17.88414000 </i>
    <i name="e_0_energy">    -17.90085673 </i>
   </energy>
  </scstep>
  <scstep>
   <time name="diag">    0.02    0.03</time>
   <time name="diis">    0.05    0.16</time>
   <time name="orth">    0.00    0.01</time>
   <time name="total">    0.08    0.21</time>
   <energy>
    <i name="alphaZ">      5.09113229 </i>
    <i name="ewald">    551.11941335 </i>
    <i name="hartreedc">   -808.22888301 </i>
    <i name="XCdc">     28.66749282 </i>
    <i name="pawpsdc">    137.44160005 </i>
    <i name="pawaedc">   -140.01270633 </i>
    <i name="eentropy">     -0.02507504 </i>
    <i name="bandstr">    -86.21663650 </i>
    <i name="atom">    294.25444774 </i>
    <i name="e_fr_energy">    -17.90921462 </i>
    <i name="e_wo_entrp">    -17.88413958 </i>
    <i name="e_0_energy">    -17.90085628 </i>
   </energy>
  </scstep>
  <structure>
   <crystal>
    <varray name="basis" >
     <v>       2.48194877       0.00000000       0.00000000 </v>
     <v>      -1.24097438       2.14943068       0.00000000 </v>
     <v>       0.00000000       0.00000000      12.00000000 </v>
    </varray>
    <i name="volume">     64.01732211 </i>
    <varray name="rec_basis" >
     <v>       0.40290920       0.23261974      -0.00000000 </v>
     <v>       0.00000000       0.46523947      -0.00000000 </v>
     <v>       0.00000000       0.00000000       0.08333333 </v>
    </varray>
   </crystal>
   <varray name="positions" >
    <v>      -0.00000000      -0.00000000       0.14250334 </v>
    <v>       0.33333001       0.66667002       0.14167000 </v>
   </varray>
  </structure>
  <varray name="forces" >
   <v>       0.00231063      -0.00133404      -0.16372694 </v>
   <v>      -0.00231063       0.00133404       0.16372694 </v>
  </varray>
  <varray name="stress" >
   <v>     -12.76984241      -0.00483500       0.00069881 </v>
   <v>      -0.00483500     -12.77542539      -0.00040346 </v>
   <v>       0.00069882      -0.00040346      -7.35758376 </v>
  </varray>
  <energy>
   <i name="e_fr_energy">    -17.90921462 </i>
   <i name="e_wo_entrp">    -17.90085628 </i>
   <i name="e_0_energy">     -0.02507504 </i>
  </energy>
  <kpoints>
   <generation param="Monkhorst-Pack">
    <v type="int" name="divisions">       3        3        1 </v>
    <v name="usershift">      0.00000000       0.00000000       0.00000000 </v>
    <v name="genvec1">      0.33333333       0.00000000      -0.00000000 </v>
    <v name="genvec2">      0.00000000       0.33333333       0.00000000 </v>
    <v name="genvec3">      0.00000000       0.00000000       1.00000000 </v>
    <v name="shift">      0.00000000       0.00000000       0.00000000 </v>
   </generation>
   <varray name="kpointlist" >
    <v>       0.00000000       0.00000000       0.00000000 </v>
    <v>       0.33333333       0.00000000       0.00000000 </v>
    <v>       0.33333333       0.33333333       0.00000000 </v>
    <v>      -0.33333333       0.33333333       0.00000000 </v>
   </varray>
   <varray name="weights" >
    <v>       0.11111111 </v>
    <v>       0.44444444 </v>
    <v>       0.22222222 </v>
    <v>       0.22222222 </v>
   </varray>
  </kpoints>
  <time name="totalsc">    0.86    3.06</time>
 </calculation>
 <calculation>
  <scstep>
   <time name="diag">    0.02    0.03</time>
   <time name="diis">    0.03    0.18</time>
   <time name="orth">    0.01    0.01</time>
   <time name="total">    0.09    0.25</time>
   <energy>
    <i name="alphaZ">      5.09113229 </i>
    <i name="ewald">    551.11941335 </i>
    <i name="hartreedc">   -808.22494079 </i>
    <i name="XCdc">     28.66733462 </i>
    <i name="pawpsdc">    137.44219592 </i>
    <i name="pawaedc">   -140.01330373 </i>
    <i name="eentropy">     -0.02507402 </i>
    <i name="bandstr">    -86.22059185 </i>
    <i name="atom">    294.25444774 </i>
    <i name="e_fr_energy">    -17.90938646 </i>
    <i name="e_wo_entrp">    -17.88431244 </i>
    <i name="e_0_energy">    -17.90102845 </i>
   </energy>
  </scstep>
  <scstep>
   <time name="diag">    0.04    0.05</time>
   <time name="diis">    0.05    0.17</time>
   <time name="orth">    0.02    0.02</time>
   <time name="total">    0.13    0.26</time>
   <energy>
    <i name="e_fr_energy">    -17.90938588 </i>
    <i name="e_wo_entrp">    -17.88431128 </i>
    <i name="e_0_energy">    -17.90102768 </i>
   </energy>
  </scstep>
  <scstep>
   <time name="diag">    0.04    0.05</time>
   <time name="diis">    0.04    0.18</time>
   <time name="orth">    0.01    0.01</time>
   <time name="total">    0.10    0.25</time>
   <energy>
    <i name="e_fr_energy">    -17.90922865 </i>
    <i name="e_wo_entrp">    -17.88415362 </i>
    <i name="e_0_energy">    -17.90087031 </i>
   </energy>
  </scstep>
  <scstep>
   <time name="diag">    0.01    0.02</time>
   <time name="diis">    0.04    0.19</time>
   <time name="orth">    0.02    0.02</time>
   <time name="total">    0.09    0.25</time>
   <energy>
    <i name="alphaZ">      5.09113229 </i>
    <i name="ewald">    551.11941335 </i>
    <i name="hartreedc">   -808.22532764 </i>
    <i name="XCdc">     28.66744262 </i>
    <i name="pawpsdc">    137.44224721 </i>
    <i name="pawaedc">   -140.01331503 </i>
    <i name="eentropy">     -0.02507506 </i>
    <i name="bandstr">    -86.22018186 </i>
    <i name="atom">    294.25444774 </i>
    <i name="e_fr_energy">    -17.90921637 </i>
    <i name="e_wo_entrp">    -17.88414131 </i>
    <i name="e_0_energy">    -17.90085802 </i>
   </energy>
  </scstep>
  <structure>
   <crystal>
    <varray name="basis" >
     <v>       2.48194877       0.00000000       0.00000000 </v>
     <v>      -1.24097438       2.14943068       0.00000000 </v>
     <v>       0.00000000       0.00000000      12.00000000 </v>
    </varray>
    <i name="volume">     64.01732211 </i>
    <varray name="rec_basis" >
     <v>       0.40290920       0.23261974      -0.00000000 </v>
     <v>       0.00000000       0.46523947      -0.00000000 </v>
     <v>       0.00000000       0.00000000       0.08333333 </v>
    </varray>
   </crystal>
   <varray name="positions" >
    <v>       0.00000000       0.00000000       0.14083667 </v>
    <v>       0.33333001       0.66667002       0.14167000 </v>
   </varray>
  </structure>
  <varray name="forces" >
   <v>       0.00218066      -0.00125901       0.16449818 </v>
   <v>      -0.00218066       0.00125901      -0.16449818 </v>
  </varray>
  <varray name="stress" >
   <v>     -12.75207466      -0.04626980      -0.00074071 </v>
   <v>      -0.04626980     -12.80550241       0.00042765 </v>
   <v>      -0.00074069       0.00042764      -7.32336376 </v>
  </varray>
  <energy>
   <i name="e_fr_energy">    -17.90921637 </i>
   <i name="e_wo_entrp">    -17.90085802 </i>
   <i name="e_0_energy">     -0.02507506 </i>
  </energy>
  <kpoints>
   <generation param="Monkhorst-Pack">
    <v type="int" name="divisions">       3        3        1 </v>
    <v name="usershift">      0.00000000       0.00000000       0.00000000 </v>
    <v name="genvec1">      0.33333333       0.00000000      -0.00000000 </v>
    <v name="genvec2">      0.00000000       0.33333333       0.00000000 </v>
    <v name="genvec3">      0.00000000       0.00000000       1.00000000 </v>
    <v name="shift">      0.00000000       0.00000000       0.00000000 </v>
   </generation>
   <varray name="kpointlist" >
    <v>       0.00000000       0.00000000       0.00000000 </v>
    <v>       0.33333333       0.00000000       0.00000000 </v>
    <v>       0.00000000       0.33333333       0.00000000 </v>
    <v>       0.33333333       0.33333333       0.00000000 </v>
    <v>      -0.33333333       0.33333333       0.00000000 </v>
   </varray>
   <varray name="weights" >
    <v>       0.11111111 </v>
    <v>       0.22222222 </v>
    <v>       0.22222222 </v>
    <v>       0.22222222 </v>
    <v>       0.22222222 </v>
   </varray>
  </kpoints>
  <time name="totalsc">    0.69    3.15</time>
 </calculation>
 <calculation>
  <scstep>
   <time name="diag">    0.03    0.04</time>
   <time name="diis">    0.04    0.18</time>
   <time name="orth">    0.07    0.07</time>
   <time name="total">    0.16    0.31</time>
   <energy>
    <i name="alphaZ">      5.09113229 </i>
    <i name="ewald">    551.14329526 </i>
    <i name="hartreedc">   -808.23901223 </i>
    <i name="XCdc">     28.66781097 </i>
    <i name="pawpsdc">    137.44259099 </i>
    <i name="pawaedc">   -140.01370469 </i>
    <i name="eentropy">     -0.01646674 </i>
    <i name="bandstr">    -86.24635798 </i>
    <i name="atom">    294.25444774 </i>
    <i name="e_fr_energy">    -17.91626439 </i>
    <i name="e_wo_entrp">    -17.89979765 </i>
    <i name="e_0_energy">    -17.91077547 </i>
   </energy>
  </scstep>
  <scstep>
   <time name="diag">    0.04    0.05</time>
   <time name="diis">    0.07    0.23</time>
   <time name="orth">    0.02    0.02</time>
   <time name="total">    0.14    0.32</time>
   <energy>
    <i name="e_fr_energy">    -17.91425673 </i>
    <i name="e_wo_entrp">    -17.89592788 </i>
    <i name="e_0_energy">    -17.90814712 </i>
   </energy>
  </scstep>
  <scstep>
   <time name="diag">    0.03    0.04</time>
   <time name="diis">    0.06    0.36</time>
   <time name="orth">    0.02    0.02</time>
   <time name="total">    0.12    0.44</time>
   <energy>
    <i name="e_fr_energy">    -17.91381865 </i>
    <i name="e_wo_entrp">    -17.89412787 </i>
    <i name="e_0_energy">    -17.90725506 </i>
   </energy>
  </scstep>
  <scstep>
   <time name="diag">    0.02    0.03</time>
   <time name="diis">    0.03    0.18</time>
   <time name="orth">    0.01    0.01</time>
   <time name="total">    0.07    0.24</time>
   <energy>
    <i name="alphaZ">      5.09113229 </i>
    <i name="ewald">    551.14329526 </i>
    <i name="hartreedc">   -808.25915024 </i>
    <i name="XCdc">     28.66918824 </i>
    <i name="pawpsdc">    137.48099965 </i>
    <i name="pawaedc">   -140.05224229 </i>
    <i name="eentropy">     -0.01939488 </i>
    <i name="bandstr">    -86.22209937 </i>
    <i name="atom">    294.25444774 </i>
    <i name="e_fr_energy">    -17.91382359 </i>
    <i name="e_wo_entrp">    -17.89442871 </i>
    <i name="e_0_energy">    -17.90735863 </i>
   </energy>
  </scstep>
  <structure>
   <crystal>
    <varray name="basis" >
     <v>       2.48194877       0.00000000       0.00000000 </v>
     <v>      -1.24097438       2.14943068       0.00000000 </v>
     <v>       0.00000000       0.00000000      12.00000000 </v>
    </varray>
    <i name="volume">     64.01732211 </i>
    <varray name="rec_basis" >
     <v>       0.40290920       0.23261974      -0.00000000 </v>
     <v>       0.00000000       0.46523947      -0.00000000 </v>
     <v>       0.00000000       0.00000000       0.08333333 </v>
    </varray>
   </crystal>
   <varray name="positions" >
    <v>       0.00000000       0.00000000       0.14167000 </v>
    <v>       0.33735910       0.66667002       0.14167000 </v>
   </varray>
  </structure>
  <varray name="forces" >
   <v>      -0.74402360      -0.01292760       0.00000000 </v>
   <v>       0.74402360       0.01292760       0.00000000 </v>
  </varray>
  <varray name="stress" >
   <v>     -12.93885062     -28.79544475      -0.00000000 </v>
   <v>     -28.79544474     -12.93970152      -0.00000000 </v>
   <v>      -0.00000000      -0.00000000      -7.27826625 </v>
  </varray>
  <energy>
   <i name="e_fr_energy">    -17.91382359 </i>
   <i name="e_wo_entrp">    -17.90735863 </i>
   <i name="e_0_energy">     -0.01939488 </i>
  </energy>
  <kpoints>
   <generation param="Monkhorst-Pack">
    <v type="int" name="divisions">       3        3        1 </v>
    <v name="usershift">      0.00000000       0.00000000       0.00000000 </v>
    <v name="genvec1">      0.33333333       0.00000000      -0.00000000 </v>
    <v name="genvec2">      0.00000000       0.33333333       0.00000000 </v>
    <v name="genvec3">      0.00000000       0.00000000       1.00000000 </v>
    <v name="shift">      0.00000000       0.00000000       0.00000000 </v>
   </generation>
   <varray name="kpointlist" >
    <v>       0.00000000       0.00000000       0.00000000 </v>
    <v>       0.33333333       0.00000000       0.00000000 </v>
    <v>       0.00000000       0.33333333       0.00000000 </v>
    <v>       0.33333333       0.33333333       0.00000000 </v>
    <v>      -0.33333333       0.33333333       0.00000000 </v>
   </varray>
   <varray name="weights" >
    <v>       0.11111111 </v>
    <v>       0.22222222 </v>
    <v>       0.22222222 </v>
    <v>       0.22222222 </v>
    <v>       0.22222222 </v>
   </varray>
  </kpoints>
  <time name="totalsc">    0.82    3.21</time>
 </calculation>
 <calculation>
  <scstep>
   <time name="diag">    0.06    0.07</time>
   <time name="diis">    0.05    0.27</time>
   <time name="orth">    0.01    0.01</time>
   <time name="total">    0.14    0.37</time>
   <energy>
    <i name="alphaZ">      5.09113229 </i>
    <i name="ewald">    551.14333862 </i>
    <i name="hartreedc">   -808.24824146 </i>
    <i name="XCdc">     28.66821844 </i>
    <i name="pawpsdc">    137.48217557 </i>
    <i name="pawaedc">   -140.05342718 </i>
    <i name="eentropy">     -0.01310411 </i>
    <i name="bandstr">    -86.24804987 </i>
    <i name="atom">    294.25444774 </i>
    <i name="e_fr_energy">    -17.92350996 </i>
    <i name="e_wo_entrp">    -17.91040585 </i>
    <i name="e_0_energy">    -17.91914192 </i>
   </energy>
  </scstep>
  <scstep>
   <time name="diag">    0.02    0.03</time>
   <time name="diis">    0.05    0.29</time>
   <time name="orth">    0.02    0.02</time>
   <time name="total">    0.11    0.36</time>
   <energy>
    <i name="e_fr_energy">    -17.91550358 </i>
    <i name="e_wo_entrp">    -17.89843303 </i>
    <i name="e_0_energy">    -17.90981340 </i>
   </energy>
  </scstep>
  <scstep>
   <time name="diag">    0.01    0.03</time>
   <time name="diis">    0.05    0.27</time>
   <time name="orth">    0.01    0.01</time>
   <time name="total">    0.09    0.32</time>
   <energy>
    <i name="e_fr_energy">    -17.91382504 </i>
    <i name="e_wo_entrp">    -17.89396279 </i>
    <i name="e_0_energy">    -17.90720429 </i>
   </energy>
  </scstep>
  <scstep>
   <time name="diag">    0.02    0.03</time>
   <time name="diis">    0.05    0.18</time>
   <time name="orth">    0.04    0.04</time>
   <time name="total">    0.11    0.26</time>
   <energy>
    <i name="alphaZ">      5.09113229 </i>
    <i name="ewald">    551.14333862 </i>
    <i name="hartreedc">   -808.26071628 </i>
    <i name="XCdc">     28.66914108 </i>
    <i name="pawpsdc">    137.47965670 </i>
    <i name="pawaedc">   -140.05087595 </i>
    <i name="eentropy">     -0.01935747 </i>
    <i name="bandstr">    -86.22063132 </i>
    <i name="atom">    294.25444774 </i>
    <i name="e_fr_energy">    -17.91386458 </i>
    <i name="e_wo_entrp">    -17.89450711 </i>
    <i name="e_0_energy">    -17.90741209 </i>
   </energy>
  </scstep>
  <structure>
   <crystal>
    <varray name="basis" >
     <v>       2.48194877       0.00000000       0.00000000 </v>
     <v>      -1.24097438       2.14943068       0.00000000 </v>
     <v>       0.00000000       0.00000000      12.00000000 </v>
    </varray>
    <i name="volume">     64.01732211 </i>
    <varray name="rec_basis" >
     <v>       0.40290920       0.23261974      -0.00000000 </v>
     <v>       0.00000000       0.46523947      -0.00000000 </v>
     <v>       0.00000000       0.00000000       0.08333333 </v>
    </varray>
   </crystal>
   <varray name="positions" >
    <v>       0.00000000       0.00000000       0.14167000 </v>
    <v>       0.32930091       0.66667002       0.14167000 </v>
   </varray>
  </structure>
  <varray name="forces" >
   <v>       0.74972608      -0.01294014       0.00000000 </v>
   <v>      -0.74972608       0.01294014       0.00000000 </v>
  </varray>
  <varray name="stress" >
   <v>     -12.93270423      28.87981819      -0.00000000 </v>
   <v>      28.87981819     -12.93356151      -0.00000000 </v>
   <v>      -0.00000000      -0.00000000      -7.27047001 </v>
  </varray>
  <energy>
   <i name="e_fr_energy">    -17.91386458 </i>
   <i name="e_wo_entrp">    -17.90741209 </i>
   <i name="e_0_energy">     -0.01935747 </i>
  </energy>
  <kpoints>
   <generation param="Monkhorst-Pack">
    <v type="int" name="divisions">       3        3        1 </v>
    <v name="usershift">      0.00000000       0.00000000       0.00000000 </v>
    <v name="genvec1">      0.33333333       0.00000000      -0.00000000 </v>
    <v name="genvec2">      0.00000000       0.33333333       0.00000000 </v>
    <v name="genvec3">      0.00000000       0.00000000       1.00000000 </v>
    <v name="shift">      0.00000000       0.00000000       0.00000000 </v>
   </generation>
   <varray name="kpointlist" >
    <v>       0.00000000       0.00000000       0.00000000 </v>
    <v>       0.33333333       0.00000000       0.00000000 </v>
    <v>       0.00000000       0.33333333       0.00000000 </v>
    <v>       0.33333333       0.33333333       0.00000000 </v>
    <v>      -0.33333333       0.33333333       0.00000000 </v>
   </varray>
   <varray name="weights" >
    <v>       0.11111111 </v>
    <v>       0.22222222 </v>
    <v>       0.22222222 </v>
    <v>       0.22222222 </v>
    <v>       0.22222222 </v>
   </varray>
  </kpoints>
  <time name="totalsc">    0.79    3.32</time>
 </calculation>
 <calculation>
  <scstep>
   <time name="diag">    0.01    0.03</time>
   <time name="diis">    0.07    0.19</time>
   <time name="orth">    0.03    0.03</time>
   <time name="total">    0.12    0.26</time>
   <energy>
    <i name="alphaZ">      5.09113229 </i>
    <i name="ewald">    551.14323124 </i>
    <i name="hartreedc">   -808.25560803 </i>
    <i name="XCdc">     28.66873765 </i>
    <i name="pawpsdc">    137.48034230 </i>
    <i name="pawaedc">   -140.05158245 </i>
    <i name="eentropy">     -0.01627029 </i>
    <i name="bandstr">    -86.23296952 </i>
    <i name="atom">    294.25444774 </i>
    <i name="e_fr_energy">    -17.91853907 </i>
    <i name="e_wo_entrp">    -17.90226877 </i>
    <i name="e_0_energy">    -17.91311564 </i>
   </energy>
  </scstep>
  <scstep>
   <time name="diag">    0.01    0.03</time>
   <time name="diis">    0.05    0.18</time>
   <time name="orth">    0.01    0.01</time>
   <time name="total">    0.08    0.23</time>
   <energy>
    <i name="e_fr_energy">    -17.91457364 </i>
    <i name="e_wo_entrp">    -17.89625646 </i>
    <i name="e_0_energy">    -17.90846791 </i>
   </energy>
  </scstep>
  <scstep>
   <time name="diag">    0.03    0.04</time>
   <time name="diis">    0.05    0.21</time>
   <time name="orth">    0.04    0.04</time>
   <time name="total">    0.14    0.31</time>
   <energy>
    <i name="e_fr_energy">    -17.91378676 </i>
    <i name="e_wo_entrp">    -17.89416004 </i>
    <i name="e_0_energy">    -17.90724452 </i>
   </energy>
  </scstep>
  <scstep>
   <time name="diag">    0.04    0.06</time>
   <time name="diis">    0.06    0.20</time>
   <time name="orth">    0.02    0.02</time>
   <time name="total">    0.13    0.28</time>
   <energy>
    <i name="alphaZ">      5.09113229 </i>
    <i name="ewald">    551.14323124 </i>
    <i name="hartreedc">   -808.26184013 </i>
    <i name="XCdc">     28.66922116 </i>
    <i name="pawpsdc">    137.48093279 </i>
    <i name="pawaedc">   -140.05216553 </i>
    <i name="eentropy">     -0.01942653 </i>
    <i name="bandstr">    -86.21934218 </i>
    <i name="atom">    294.25444774 </i>
    <i name="e_fr_energy">    -17.91380914 </i>
    <i name="e_wo_entrp">    -17.89438261 </i>
    <i name="e_0_energy">    -17.90733363 </i>
   </energy>
  </scstep>
  <structure>
   <crystal>
    <varray name="basis" >
     <v>       2.48194877       0.00000000       0.00000000 </v>
     <v>      -1.24097438       2.14943068       0.00000000 </v>
     <v>       0.00000000       0.00000000      12.00000000 </v>
    </varray>
    <i name="volume">     64.01732211 </i>
    <varray name="rec_basis" >
     <v>       0.40290920       0.23261974      -0.00000000 </v>
     <v>       0.00000000       0.46523947      -0.00000000 </v>
     <v>       0.00000000       0.00000000       0.08333333 </v>
    </varray>
   </crystal>
   <varray name="positions" >
    <v>       0.00000000       0.00000000       0.14167000 </v>
    <v>       0.33565620       0.67132242       0.14167000 </v>
   </varray>
  </structure>
  <varray name="forces" >
   <v>      -0.00264887      -0.73078999       0.00000000 </v>
   <v>       0.00264887       0.73078999       0.00000000 </v>
  </varray>
  <varray name="stress" >
   <v>     -41.44915264      -0.34189120      -0.00000000 </v>
   <v>      -0.34189120      15.59736493      -0.00000000 </v>
   <v>      -0.00000000      -0.00000000      -7.31518844 </v>
  </varray>
  <energy>
   <i name="e_fr_energy">    -17.91380914 </i>
   <i name="e_wo_entrp">    -17.90733363 </i>
   <i name="e_0_energy">     -0.01942653 </i>
  </energy>
  <kpoints>
   <generation param="Monkhorst-Pack">
    <v type="int" name="divisions">       3        3        1 </v>
    <v name="usershift">      0.00000000       0.00000000       0.00000000 </v>
    <v name="genvec1">      0.33333333       0.00000000      -0.00000000 </v>
    <v name="genvec2">      0.00000000       0.33333333       0.00000000 </v>
    <v name="genvec3">      0.00000000       0.00000000       1.00000000 </v>
    <v name="shift">      0.00000000       0.00000000       0.00000000 </v>
   </generation>
   <varray name="kpointlist" >
    <v>       0.00000000       0.00000000       0.00000000 </v>
    <v>       0.33333333       0.00000000       0.00000000 </v>
    <v>       0.00000000       0.33333333       0.00000000 </v>
    <v>       0.33333333       0.33333333       0.00000000 </v>
    <v>      -0.33333333       0.33333333       0.00000000 </v>
   </varray>
   <varray name="weights" >
    <v>       0.11111111 </v>
    <v>       0.22222222 </v>
    <v>       0.22222222 </v>
    <v>       0.22222222 </v>
    <v>       0.22222222 </v>
   </varray>
  </kpoints>
  <time name="totalsc">    0.78    3.35</time>
 </calculation>
 <calculation>
  <scstep>
   <time name="diag">    0.04    0.06</time>
   <time name="diis">    0.06    0.31</time>
   <time name="orth">    0.04    0.04</time>
   <time name="total">    0.18    0.46</time>
   <energy>
    <i name="alphaZ">      5.09113229 </i>
    <i name="ewald">    551.14340179 </i>
    <i name="hartreedc">   -808.24999329 </i>
    <i name="XCdc">     28.66822366 </i>
    <i name="pawpsdc">    137.48106269 </i>
    <i name="pawaedc">   -140.05230483 </i>
    <i name="eentropy">     -0.01298670 </i>
    <i name="bandstr">    -86.24661850 </i>
    <i name="atom">    294.25444774 </i>
    <i name="e_fr_energy">    -17.92363514 </i>
    <i name="e_wo_entrp">    -17.91064844 </i>
    <i name="e_0_energy">    -17.91930624 </i>
   </energy>
  </scstep>
  <scstep>
   <time name="diag">    0.04    0.06</time>
   <time name="diis">    0.06    0.34</time>
   <time name="orth">    0.02    0.02</time>
   <time name="total">    0.14    0.43</time>
   <energy>
    <i name="e_fr_energy">    -17.91550939 </i>
    <i name="e_wo_entrp">    -17.89846831 </i>
    <i name="e_0_energy">    -17.90982903 </i>
   </energy>
  </scstep>
  <scstep>
   <time name="diag">    0.05    0.06</time>
   <time name="diis">    0.05    0.20</time>
   <time name="orth">    0.06    0.06</time>
   <time name="total">    0.17    0.33</time>
   <energy>
    <i name="e_fr_energy">    -17.91382652 </i>
    <i name="e_wo_entrp">    -17.89394927 </i>
    <i name="e_0_energy">    -17.90720077 </i>
   </energy>
  </scstep>
  <scstep>
   <time name="diag">    0.02    0.03</time>
   <time name="diis">    0.04    0.18</time>
   <time name="orth">    0.05    0.05</time>
   <time name="total">    0.13    0.28</time>
   <energy>
    <i name="alphaZ">      5.09113229 </i>
    <i name="ewald">    551.14340179 </i>
    <i name="hartreedc">   -808.26230074 </i>
    <i name="XCdc">     28.66917087 </i>
    <i name="pawpsdc">    137.47970764 </i>
    <i name="pawaedc">   -140.05091876 </i>
    <i name="eentropy">     -0.01935054 </i>
    <i name="bandstr">    -86.21915490 </i>
    <i name="atom">    294.25444774 </i>
    <i name="e_fr_energy">    -17.91386459 </i>
    <i name="e_wo_entrp">    -17.89451405 </i>
    <i name="e_0_energy">    -17.90741441 </i>
   </energy>
  </scstep>
  <structure>
   <crystal>
    <varray name="basis" >
     <v>       2.48194877       0.00000000       0.00000000 </v>
     <v>      -1.24097438       2.14943068       0.00000000 </v>
     <v>       0.00000000       0.00000000      12.00000000 </v>
    </varray>
    <i name="volume">     64.01732211 </i>
    <varray name="rec_basis" >
     <v>       0.40290920       0.23261974      -0.00000000 </v>
     <v>       0.00000000       0.46523947      -0.00000000 </v>
     <v>       0.00000000       0.00000000       0.08333333 </v>
    </varray>
   </crystal>
   <varray name="positions" >
    <v>       0.00000000       0.00000000       0.14167000 </v>
    <v>       0.33100381       0.66201763       0.14167000 </v>
   </varray>
  </structure>
  <varray name="forces" >
   <v>       0.00246468       0.75948525       0.00000000 </v>
   <v>      -0.00246468      -0.75948525       0.00000000 </v>
  </varray>
  <varray name="stress" >
   <v>      16.01961242      -0.04139476      -0.00000000 </v>
   <v>      -0.04139476     -41.97583852      -0.00000000 </v>
   <v>      -0.00000000      -0.00000000      -7.32704895 </v>
  </varray>
  <energy>
   <i name="e_fr_energy">    -17.91386459 </i>
   <i name="e_wo_entrp">    -17.90741441 </i>
   <i name="e_0_energy">     -0.01935054 </i>
  </energy>
  <kpoints>
   <generation param="Monkhorst-Pack">
    <v type="int" name="divisions">       3        3        1 </v>
    <v name="usershift">      0.00000000       0.00000000       0.00000000 </v>
    <v name="genvec1">      0.33333333       0.00000000      -0.00000000 </v>
    <v name="genvec2">      0.00000000       0.33333333       0.00000000 </v>
    <v name="genvec3">      0.00000000       0.00000000       1.00000000 </v>
    <v name="shift">      0.00000000       0.00000000       0.00000000 </v>
   </generation>
   <varray name="kpointlist" >
    <v>       0.00000000       0.00000000       0.00000000 </v>
    <v>       0.33333333       0.00000000       0.00000000 </v>
    <v>       0.33333333       0.33333333       0.00000000 </v>
    <v>      -0.33333333       0.33333333       0.00000000 </v>
   </varray>
   <varray name="weights" >
    <v>       0.11111111 </v>
    <v>       0.44444444 </v>
    <v>       0.22222222 </v>
    <v>       0.22222222 </v>
   </varray>
  </kpoints>
  <time name="totalsc">    0.87    3.52</time>
 </calculation>
 <calculation>
  <scstep>
   <time name="diag">    0.02    0.03</time>
   <time name="diis">    0.04    0.18</time>
   <time name="orth">    0.01    0.01</time>
   <time name="total">    0.09    0.24</time>
   <energy>
    <i name="alphaZ">      5.09113229 </i>
    <i name="ewald">    551.11941335 </i>
    <i name="hartreedc">   -808.24261891 </i>
    <i name="XCdc">     28.66834835 </i>
    <i name="pawpsdc">    137.48008684 </i>
    <i name="pawaedc">   -140.05131588 </i>
    <i name="eentropy">     -0.02475725 </i>
    <i name="bandstr">    -86.20388653 </i>
    <i name="atom">    294.25444774 </i>
    <i name="e_fr_energy">    -17.90914998 </i>
    <i name="e_wo_entrp">    -17.88439273 </i>
    <i name="e_0_energy">    -17.90089757 </i>
   </energy>
  </scstep>
  <scstep>
   <time name="diag">    0.02    0.03</time>
   <time name="diis">    0.04    0.17</time>
   <time name="orth">    0.01    0.01</time>
   <time name="total">    0.09    0.23</time>
   <energy>
    <i name="e_fr_energy">    -17.90856979 </i>
    <i name="e_wo_entrp">    -17.88364687 </i>
    <i name="e_0_energy">    -17.90026215 </i>
   </energy>
  </scstep>
  <scstep>
   <time name="diag">    0.02    0.03</time>
   <time name="diis">    0.04    0.16</time>
   <time name="orth">    0.01    0.01</time>
   <time name="total">    0.09    0.22</time>
   <energy>
    <i name="e_fr_energy">    -17.90901776 </i>
    <i name="e_wo_entrp">    -17.88394952 </i>
    <i name="e_0_energy">    -17.90066168 </i>
   </energy>
  </scstep>
  <scstep>
   <time name="diag">    0.01    0.03</time>
   <time name="diis">    0.03    0.18</time>
   <time name="orth">    0.01    0.01</time>
   <time name="total">    0.07    0.24</time>
   <energy>
    <i name="e_fr_energy">    -17.90912838 </i>
    <i name="e_wo_entrp">    -17.88405430 </i>
    <i name="e_0_energy">    -17.90077036 </i>
   </energy>
  </scstep>
  <scstep>
   <time name="diag">    0.02    0.03</time>
   <time name="diis">    0.03    0.17</time>
   <time name="orth">    0.02    0.02</time>
   <time name="total">    0.07    0.22</time>
   <energy>
    <i name="alphaZ">      5.09113229 </i>
    <i name="ewald">    551.11941335 </i>
    <i name="hartreedc">   -808.22699812 </i>
    <i name="XCdc">     28.66749473 </i>
    <i name="pawpsdc">    137.44395345 </i>
    <i name="pawaedc">   -140.01504748 </i>
    <i name="eentropy">     -0.02507503 </i>
    <i name="bandstr">    -86.21853349 </i>
    <i name="atom">    294.25444774 </i>
    <i name="e_fr_energy">    -17.90921256 </i>
    <i name="e_wo_entrp">    -17.88413752 </i>
    <i name="e_0_energy">    -17.90085421 </i>
   </energy>
  </scstep>
  <structure>
   <crystal>
    <varray name="basis" >
     <v>       2.48194877       0.00000000       0.00000000 </v>
     <v>      -1.24097438       2.14943068       0.00000000 </v>
     <v>       0.00000000       0.00000000      12.00000000 </v>
    </varray>
    <i name="volume">     64.01732211 </i>
    <varray name="rec_basis" >
     <v>       0.40290920       0.23261974      -0.00000000 </v>
     <v>       0.00000000       0.46523947      -0.00000000 </v>
     <v>       0.00000000       0.00000000       0.08333333 </v>
    </varray>
   </crystal>
   <varray name="positions" >
    <v>       0.00000000       0.00000000       0.14167000 </v>
    <v>       0.33333001       0.66667002       0.14250334 </v>
   </varray>
  </structure>
  <varray name="forces" >
   <v>       0.00474708      -0.00274073       0.16363847 </v>
   <v>      -0.00474708       0.00274073      -0.16363847 </v>
  </varray>
  <varray name="stress" >
   <v>     -12.81940753       0.06065528      -0.00156101 </v>
   <v>       0.06065528     -12.74936884       0.00090125 </v>
   <v>      -0.00156104       0.00090126      -7.32705186 </v>
  </varray>
  <energy>
   <i name="e_fr_energy">    -17.90921256 </i>
   <i name="e_wo_entrp">    -17.90085421 </i>
   <i name="e_0_energy">     -0.02507503 </i>
  </energy>
  <kpoints>
   <generation param="Monkhorst-Pack">
[...]
    <v>   2.26705444E-01 -6.26140463E-01 -2.38877979E-01  2.26781725E-01 -6.25285369E-01 -2.38910717E-01</v>
    <v>  -3.28841796E-01  1.15716122E-01 -6.15158236E-01 -3.28842115E-01  1.15716894E-01 -6.15244391E-01</v>
    <v>  -3.79514348E-01  5.96213124E-01 -8.13520867E-05  3.80611976E-01 -5.96349734E-01 -5.31969517E-04</v>
    <v>   5.95795996E-01  3.79530912E-01  4.21283950E-05 -5.96766270E-01 -3.80596058E-01  2.75977280E-04</v>
   </varray>
  </dynmat>
  <kpoints>
   <generation param="Monkhorst-Pack">
    <v type="int" name="divisions">       3        3        1 </v>
    <v name="usershift">      0.00000000       0.00000000       0.00000000 </v>
    <v name="genvec1">      0.33333333       0.00000000      -0.00000000 </v>
    <v name="genvec2">      0.00000000       0.33333333       0.00000000 </v>
    <v name="genvec3">      0.00000000       0.00000000       1.00000000 </v>
    <v name="shift">      0.00000000       0.00000000       0.00000000 </v>
   </generation>
   <varray name="kpointlist" >
    <v>       0.00000000       0.00000000       0.00000000 </v>
    <v>       0.33333333       0.00000000       0.00000000 </v>
    <v>       0.33333333       0.33333333       0.00000000 </v>
    <v>      -0.33333333       0.33333333       0.00000000 </v>
   </varray>
   <varray name="weights" >
    <v>       0.11111111 </v>
    <v>       0.44444444 </v>
    <v>       0.22222222 </v>
    <v>       0.22222222 </v>
   </varray>
  </kpoints>
  <time name="totalsc">    0.73    2.36</time>
  <eigenvalues>
   <array>
    <dimension dim="1">band</dimension>
    <dimension dim="2">kpoint</dimension>
    <dimension dim="3">spin</dimension>
    <field>eigene</field>
    <field>occ</field>
    <set>
     <set comment="spin 1">
      <set comment="kpoint 1">
       <r>  -21.1494    1.0000 </r>
       <r>   -9.2880    1.0000 </r>
       <r>   -4.8025    1.0000 </r>
       <r>   -4.8013    1.0000 </r>
       <r>    1.4493   -0.0000 </r>
       <r>    2.6008   -0.0000 </r>
       <r>    3.4005   -0.0000 </r>
       <r>    6.4359    0.0000 </r>
       <r>    6.4364    0.0000 </r>
       <r>    6.5610    0.0000 </r>
       <r>    7.8057    0.0000 </r>
       <r>    9.4465    0.0000 </r>
       <r>   10.2754    0.0000 </r>
       <r>   12.7859    0.0000 </r>
      </set>
      <set comment="kpoint 2">
       <r>  -18.5934    1.0000 </r>
       <r>  -11.3511    1.0000 </r>
       <r>   -7.5044    1.0000 </r>
       <r>   -6.3388    1.0000 </r>
       <r>    3.0455   -0.0000 </r>
       <r>    4.9592    0.0000 </r>
       <r>    5.7436    0.0000 </r>
       <r>    6.1325    0.0000 </r>
       <r>    6.9615    0.0000 </r>
       <r>    9.9406    0.0000 </r>
       <r>   11.2641    0.0000 </r>
       <r>   13.7926    0.0000 </r>
       <r>   14.2422    0.0000 </r>
       <r>   14.8397    0.0000 </r>
      </set>
      <set comment="kpoint 3">
       <r>  -14.3180    1.0000 </r>
       <r>  -14.3179    1.0000 </r>
       <r>  -12.1884    1.0000 </r>
       <r>   -1.7890    0.5005 </r>
       <r>   -1.7888    0.4995 </r>
       <r>    8.7613    0.0000 </r>
       <r>   10.9612    0.0000 </r>
       <r>   10.9616    0.0000 </r>
       <r>   11.5772    0.0000 </r>
       <r>   13.1696    0.0000 </r>
       <r>   13.1713    0.0000 </r>
       <r>   13.2715    0.0000 </r>
       <r>   13.2745    0.0000 </r>
       <r>   13.7418    0.0000 </r>
      </set>
      <set comment="kpoint 4">
       <r>  -18.5935    1.0000 </r>
       <r>  -11.3515    1.0000 </r>
       <r>   -7.5037    1.0000 </r>
       <r>   -6.3387    1.0000 </r>
       <r>    3.0454   -0.0000 </r>
       <r>    4.9592    0.0000 </r>
       <r>    5.7434    0.0000 </r>
       <r>    6.1325    0.0000 </r>
       <r>    6.9615    0.0000 </r>
       <r>    9.9406    0.0000 </r>
       <r>   11.2641    0.0000 </r>
       <r>   13.7918    0.0000 </r>
       <r>   14.2430    0.0000 </r>
       <r>   14.8397    0.0000 </r>
      </set>
     </set>
    </set>
   </array>
  </eigenvalues>
  <separator name="orbital magnetization" >
   <v name="MAGDIPOLOUT">      0.00000000      0.00000000      0.00000000</v>
  </separator>
  <dos>
   <i name="efermi">     -1.78887707 </i>
   <total>
    <array>
     <dimension dim="1">gridpoints</dimension>
     <dimension dim="2">spin</dimension>
     <field>energy</field>
     <field>total</field>
     <field>integrated</field>
     <set>
      <set comment="spin 1">
       <r>   -23.1494     0.0000     0.0000 </r>
       <r>   -23.0161     0.0000     0.0000 </r>
       <r>   -22.8828     0.0000     0.0000 </r>
       <r>   -22.7495    -0.0000    -0.0000 </r>
       <r>   -22.6162    -0.0000    -0.0000 </r>
       <r>   -22.4829    -0.0000    -0.0000 </r>
       <r>   -22.3496    -0.0000    -0.0000 </r>
       <r>   -22.2163    -0.0000    -0.0000 </r>
       <r>   -22.0830    -0.0000    -0.0000 </r>
       <r>   -21.9497    -0.0000    -0.0000 </r>
       <r>   -21.8164    -0.0000    -0.0000 </r>
       <r>   -21.6831    -0.0009    -0.0001 </r>
       <r>   -21.5498    -0.0124    -0.0018 </r>
       <r>   -21.4165    -0.0432    -0.0075 </r>
       <r>   -21.2832     0.1420     0.0114 </r>
       <r>   -21.1499     0.7441     0.1106 </r>
       <r>   -21.0167     0.7483     0.2104 </r>
       <r>   -20.8834     0.1457     0.2298 </r>
       <r>   -20.7501    -0.0432     0.2240 </r>
       <r>   -20.6168    -0.0126     0.2223 </r>
       <r>   -20.4835    -0.0009     0.2222 </r>
       <r>   -20.3502    -0.0000     0.2222 </r>
       <r>   -20.2169    -0.0000     0.2222 </r>
       <r>   -20.0836    -0.0000     0.2222 </r>
       <r>   -19.9503    -0.0000     0.2222 </r>
       <r>   -19.8170    -0.0000     0.2222 </r>
       <r>   -19.6837    -0.0000     0.2222 </r>
       <r>   -19.5504    -0.0000     0.2222 </r>
       <r>   -19.4171    -0.0000     0.2222 </r>
       <r>   -19.2838    -0.0001     0.2222 </r>
       <r>   -19.1505    -0.0029     0.2218 </r>
       <r>   -19.0172    -0.0505     0.2151 </r>
       <r>   -18.8839    -0.2438     0.1826 </r>
       <r>   -18.7506     0.4340     0.2405 </r>
       <r>   -18.6173     3.8625     0.7553 </r>
       <r>   -18.4840     4.9521     1.4154 </r>
       <r>   -18.3507     1.4058     1.6028 </r>
       <r>   -18.2174    -0.2390     1.5710 </r>
       <r>   -18.0841    -0.1061     1.5568 </r>
       <r>   -17.9508    -0.0091     1.5556 </r>
       <r>   -17.8175    -0.0003     1.5556 </r>
       <r>   -17.6842    -0.0000     1.5556 </r>
       <r>   -17.5509    -0.0000     1.5556 </r>
       <r>   -17.4176    -0.0000     1.5556 </r>
       <r>   -17.2843    -0.0000     1.5556 </r>
       <r>   -17.1510     0.0000     1.5556 </r>
       <r>   -17.0177     0.0000     1.5556 </r>
       <r>   -16.8844     0.0000     1.5556 </r>
       <r>   -16.7511     0.0000     1.5556 </r>
       <r>   -16.6178     0.0000     1.5556 </r>
       <r>   -16.4846     0.0000     1.5556 </r>
       <r>   -16.3513     0.0000     1.5556 </r>
       <r>   -16.2180     0.0000     1.5556 </r>
       <r>   -16.0847     0.0000     1.5556 </r>
       <r>   -15.9514    -0.0000     1.5556 </r>
       <r>   -15.8181    -0.0000     1.5556 </r>
       <r>   -15.6848    -0.0000     1.5556 </r>
       <r>   -15.5515    -0.0000     1.5556 </r>
       <r>   -15.4182    -0.0000     1.5556 </r>
       <r>   -15.2849    -0.0000     1.5556 </r>
       <r>   -15.1516    -0.0000     1.5556 </r>
       <r>   -15.0183    -0.0000     1.5556 </r>
       <r>   -14.8850    -0.0015     1.5554 </r>
       <r>   -14.7517    -0.0283     1.5516 </r>
       <r>   -14.6184    -0.1540     1.5311 </r>
       <r>   -14.4851     0.1931     1.5568 </r>
       <r>   -14.3518     2.3855     1.8748 </r>
       <r>   -14.2185     3.3978     2.3277 </r>
       <r>   -14.0852     1.1083     2.4754 </r>
       <r>   -13.9519    -0.1437     2.4563 </r>
       <r>   -13.8186    -0.0808     2.4455 </r>
       <r>   -13.6853    -0.0076     2.4445 </r>
       <r>   -13.5520    -0.0002     2.4444 </r>
       <r>   -13.4187    -0.0000     2.4444 </r>
       <r>   -13.2854    -0.0000     2.4444 </r>
       <r>   -13.1521    -0.0000     2.4444 </r>
       <r>   -13.0188    -0.0000     2.4444 </r>
       <r>   -12.8855    -0.0000     2.4444 </r>
       <r>   -12.7522    -0.0008     2.4443 </r>
       <r>   -12.6189    -0.0150     2.4423 </r>
       <r>   -12.4856    -0.0784     2.4319 </r>
       <r>   -12.3523     0.1111     2.4467 </r>
       <r>   -12.2190     1.2232     2.6097 </r>
       <r>   -12.0857     1.6848     2.8343 </r>
       <r>   -11.9524     0.5255     2.9044 </r>
       <r>   -11.8192    -0.0968     2.8915 </r>
       <r>   -11.6859    -0.2131     2.8631 </r>
       <r>   -11.5526    -0.0643     2.8545 </r>
       <r>   -11.4193     2.5560     3.1952 </r>
       <r>   -11.2860     5.3091     3.9029 </r>
       <r>   -11.1527     2.6393     4.2547 </r>
       <r>   -11.0194    -0.0401     4.2494 </r>
       <r>   -10.8861    -0.1793     4.2255 </r>
       <r>   -10.7528    -0.0234     4.2224 </r>
       <r>   -10.6195    -0.0010     4.2222 </r>
       <r>   -10.4862    -0.0000     4.2222 </r>
       <r>   -10.3529    -0.0000     4.2222 </r>
       <r>   -10.2196    -0.0000     4.2222 </r>
       <r>   -10.0863    -0.0000     4.2222 </r>
       <r>    -9.9530    -0.0000     4.2222 </r>
       <r>    -9.8197    -0.0009     4.2221 </r>
       <r>    -9.6864    -0.0127     4.2204 </r>
       <r>    -9.5531    -0.0432     4.2146 </r>
       <r>    -9.4198     0.1488     4.2345 </r>
       <r>    -9.2865     0.7518     4.3347 </r>
       <r>    -9.1532     0.7406     4.4334 </r>
       <r>    -9.0199     0.1389     4.4519 </r>
       <r>    -8.8866    -0.0432     4.4462 </r>
       <r>    -8.7533    -0.0122     4.4446 </r>
       <r>    -8.6200    -0.0008     4.4444 </r>
       <r>    -8.4867    -0.0000     4.4444 </r>
       <r>    -8.3534    -0.0000     4.4444 </r>
       <r>    -8.2201    -0.0000     4.4444 </r>
       <r>    -8.0868    -0.0015     4.4442 </r>
       <r>    -7.9535    -0.0318     4.4400 </r>
       <r>    -7.8202    -0.2065     4.4125 </r>
       <r>    -7.6869     0.1023     4.4261 </r>
       <r>    -7.5536     3.1131     4.8411 </r>
       <r>    -7.4203     5.2507     5.5410 </r>
       <r>    -7.2871     2.0952     5.8203 </r>
       <r>    -7.1538    -0.1553     5.7996 </r>
       <r>    -7.0205    -0.1470     5.7800 </r>
       <r>    -6.8872    -0.0196     5.7774 </r>
       <r>    -6.7539    -0.0591     5.7695 </r>
       <r>    -6.6206    -0.2523     5.7359 </r>
       <r>    -6.4873     0.5757     5.8126 </r>
       <r>    -6.3540     4.0976     6.3588 </r>
       <r>    -6.2207     4.7999     6.9986 </r>
       <r>    -6.0874     1.1970     7.1582 </r>
       <r>    -5.9541    -0.2515     7.1247 </r>
       <r>    -5.8208    -0.0940     7.1121 </r>
       <r>    -5.6875    -0.0075     7.1111 </r>
       <r>    -5.5542    -0.0002     7.1111 </r>
       <r>    -5.4209    -0.0002     7.1111 </r>
       <r>    -5.2876    -0.0051     7.1104 </r>
       <r>    -5.1543    -0.0479     7.1040 </r>
       <r>    -5.0210    -0.0549     7.0967 </r>
       <r>    -4.8877     0.6798     7.1873 </r>
       <r>    -4.7544     1.7455     7.4200 </r>
       <r>    -4.6211     1.0574     7.5609 </r>
       <r>    -4.4878     0.0411     7.5664 </r>
       <r>    -4.3545    -0.0699     7.5571 </r>
       <r>    -4.2212    -0.0110     7.5556 </r>
       <r>    -4.0879    -0.0005     7.5556 </r>
       <r>    -3.9546    -0.0000     7.5556 </r>
       <r>    -3.8213    -0.0000     7.5556 </r>
       <r>    -3.6880    -0.0000     7.5556 </r>
       <r>    -3.5547    -0.0000     7.5556 </r>
       <r>    -3.4214    -0.0000     7.5556 </r>
       <r>    -3.2881    -0.0000     7.5556 </r>
       <r>    -3.1548    -0.0000     7.5556 </r>
       <r>    -3.0215    -0.0000     7.5556 </r>
       <r>    -2.8882    -0.0000     7.5556 </r>
       <r>    -2.7550    -0.0000     7.5556 </r>
       <r>    -2.6217    -0.0000     7.5556 </r>
       <r>    -2.4884    -0.0000     7.5556 </r>
       <r>    -2.3551    -0.0015     7.5553 </r>
       <r>    -2.2218    -0.0287     7.5515 </r>
       <r>    -2.0885    -0.1548     7.5309 </r>
       <r>    -1.9552     0.2006     7.5576 </r>
       <r>    -1.8219     2.4015     7.8778 </r>
       <r>    -1.6886     3.3906     8.3297 </r>
       <r>    -1.5553     1.0936     8.4755 </r>
       <r>    -1.4220    -0.1452     8.4561 </r>
       <r>    -1.2887    -0.0799     8.4455 </r>
       <r>    -1.1554    -0.0075     8.4445 </r>
       <r>    -1.0221    -0.0002     8.4444 </r>
       <r>    -0.8888    -0.0000     8.4444 </r>
       <r>    -0.7555    -0.0000     8.4444 </r>
       <r>    -0.6222    -0.0000     8.4444 </r>
       <r>    -0.4889    -0.0000     8.4444 </r>
       <r>    -0.3556     0.0000     8.4444 </r>
       <r>    -0.2223    -0.0000     8.4444 </r>
       <r>    -0.0890    -0.0000     8.4444 </r>
       <r>     0.0443    -0.0000     8.4444 </r>
       <r>     0.1776    -0.0000     8.4444 </r>
       <r>     0.3109    -0.0000     8.4444 </r>
       <r>     0.4442    -0.0000     8.4444 </r>
       <r>     0.5775    -0.0000     8.4444 </r>
       <r>     0.7108    -0.0000     8.4444 </r>
       <r>     0.8441    -0.0001     8.4444 </r>
       <r>     0.9774    -0.0034     8.4440 </r>
       <r>     1.1107    -0.0279     8.4403 </r>
       <r>     1.2440    -0.0148     8.4383 </r>
       <r>     1.3773     0.4060     8.4924 </r>
       <r>     1.5106     0.8839     8.6102 </r>
       <r>     1.6439     0.4601     8.6716 </r>
       <r>     1.7771    -0.0013     8.6714 </r>
       <r>     1.9104    -0.0311     8.6673 </r>
       <r>     2.0437    -0.0047     8.6666 </r>
       <r>     2.1770    -0.0086     8.6655 </r>
       <r>     2.3103    -0.0406     8.6601 </r>
       <r>     2.4436     0.0714     8.6696 </r>
       <r>     2.5769     0.6218     8.7525 </r>
       <r>     2.7102     0.6521     8.8394 </r>
       <r>     2.8435     0.1689     8.8619 </r>
       <r>     2.9768     2.4903     9.1939 </r>
       <r>     3.1101     5.2504     9.8937 </r>
       <r>     3.2434     2.7280    10.2573 </r>
       <r>     3.3767     0.6087    10.3385 </r>
       <r>     3.5100     0.6448    10.4244 </r>
       <r>     3.6433     0.2102    10.4525 </r>
       <r>     3.7766    -0.0408    10.4470 </r>
       <r>     3.9099    -0.0177    10.4447 </r>
       <r>     4.0432    -0.0015    10.4445 </r>
       <r>     4.1765    -0.0000    10.4444 </r>
       <r>     4.3098    -0.0002    10.4444 </r>
       <r>     4.4431    -0.0078    10.4434 </r>
       <r>     4.5764    -0.0965    10.4305 </r>
       <r>     4.7097    -0.2494    10.3973 </r>
       <r>     4.8430     1.2401    10.5626 </r>
       <r>     4.9763     4.8342    11.2070 </r>
       <r>     5.1096     4.0485    11.7466 </r>
       <r>     5.2429     0.5333    11.8177 </r>
       <r>     5.3762    -0.3699    11.7684 </r>
       <r>     5.5095    -0.2764    11.7316 </r>
       <r>     5.6428     1.6103    11.9462 </r>
       <r>     5.7761     4.9428    12.6051 </r>
       <r>     5.9094     3.4318    13.0625 </r>
       <r>     6.0427     2.2023    13.3561 </r>
       <r>     6.1760     4.8676    14.0049 </r>
       <r>     6.3092     3.5422    14.4771 </r>
       <r>     6.4425     1.8978    14.7300 </r>
       <r>     6.5758     1.9311    14.9874 </r>
       <r>     6.7091     0.6422    15.0731 </r>
       <r>     6.8424     1.1836    15.2308 </r>
       <r>     6.9757     4.7165    15.8595 </r>
       <r>     7.1090     4.1123    16.4077 </r>
       <r>     7.2423     0.5918    16.4865 </r>
       <r>     7.3756    -0.2606    16.4518 </r>
       <r>     7.5089    -0.0988    16.4386 </r>
       <r>     7.6422     0.0530    16.4457 </r>
       <r>     7.7755     0.6139    16.5275 </r>
       <r>     7.9088     0.8413    16.6397 </r>
       <r>     8.0421     0.2610    16.6745 </r>
       <r>     8.1754    -0.0380    16.6694 </r>
       <r>     8.3087    -0.0292    16.6655 </r>
       <r>     8.4420    -0.0688    16.6563 </r>
       <r>     8.5753     0.0233    16.6594 </r>
       <r>     8.7086     1.0058    16.7935 </r>
       <r>     8.8419     1.7567    17.0277 </r>
       <r>     8.9752     0.7254    17.1244 </r>
       <r>     9.1085    -0.0745    17.1145 </r>
       <r>     9.2418    -0.0649    17.1058 </r>
       <r>     9.3751     0.4013    17.1593 </r>
       <r>     9.5084     0.8404    17.2713 </r>
       <r>     9.6417     0.2236    17.3011 </r>
       <r>     9.7750     0.3060    17.3419 </r>
       <r>     9.9083     3.5710    17.8179 </r>
       <r>    10.0416     5.0365    18.4893 </r>
       <r>    10.1749     1.8950    18.7419 </r>
       <r>    10.3082     0.6273    18.8255 </r>
       <r>    10.4415     0.4778    18.8892 </r>
       <r>    10.5748    -0.0213    18.8863 </r>
       <r>    10.7081    -0.2110    18.8582 </r>
       <r>    10.8413     0.7091    18.9527 </r>
       <r>    10.9746     2.9292    19.3432 </r>
       <r>    11.1079     3.2087    19.7709 </r>
       <r>    11.2412     4.2398    20.3360 </r>
       <r>    11.3745     4.7431    20.9683 </r>
       <r>    11.5078     2.1795    21.2588 </r>
       <r>    11.6411     1.5260    21.4622 </r>
       <r>    11.7744     0.7881    21.5673 </r>
       <r>    11.9077    -0.0189    21.5648 </r>
       <r>    12.0410    -0.0608    21.5567 </r>
       <r>    12.1743    -0.0081    21.5556 </r>
       <r>    12.3076    -0.0033    21.5551 </r>
       <r>    12.4409    -0.0261    21.5517 </r>
       <r>    12.5742    -0.0219    21.5488 </r>
       <r>    12.7075     0.3574    21.5964 </r>
       <r>    12.8408     0.7292    21.6936 </r>
       <r>    12.9741     0.3210    21.7364 </r>
       <r>    13.1074     2.0172    22.0053 </r>
       <r>    13.2407     5.9121    22.7933 </r>
       <r>    13.3740     4.9462    23.4527 </r>
       <r>    13.5073     0.7085    23.5471 </r>
       <r>    13.6406     0.7991    23.6536 </r>
       <r>    13.7739     5.5877    24.3984 </r>
       <r>    13.9072     5.8877    25.1833 </r>
       <r>    14.0405     1.3122    25.3582 </r>
       <r>    14.1738     2.2125    25.6531 </r>
       <r>    14.3071     5.1904    26.3450 </r>
       <r>    14.4404     2.5732    26.6880 </r>
       <r>    14.5737    -0.2947    26.6487 </r>
       <r>    14.7070     0.6943    26.7412 </r>
       <r>    14.8403     4.4669    27.3367 </r>
       <r>    14.9736     4.4633    27.9316 </r>
       <r>    15.1069     0.8515    28.0451 </r>
       <r>    15.2402    -0.2590    28.0106 </r>
       <r>    15.3734    -0.0741    28.0007 </r>
       <r>    15.5067    -0.0051    28.0000 </r>
       <r>    15.6400    -0.0001    28.0000 </r>
       <r>    15.7733    -0.0000    28.0000 </r>
       <r>    15.9066    -0.0000    28.0000 </r>
       <r>    16.0399    -0.0000    28.0000 </r>
       <r>    16.1732    -0.0000    28.0000 </r>
       <r>    16.3065     0.0000    28.0000 </r>
       <r>    16.4398     0.0000    28.0000 </r>
       <r>    16.5731     0.0000    28.0000 </r>
       <r>    16.7064     0.0000    28.0000 </r>
       <r>    16.8397     0.0000    28.0000 </r>
      </set>
     </set>
    </array>
   </total>
  </dos>
 </calculation>
 <structure name="finalpos" >
  <crystal>
   <varray name="basis" >
    <v>       2.48194877       0.00000000       0.00000000 </v>
    <v>      -1.24097438       2.14943068       0.00000000 </v>
    <v>       0.00000000       0.00000000      12.00000000 </v>
   </varray>
   <i name="volume">     64.01732211 </i>
   <varray name="rec_basis" >
    <v>       0.40290920       0.23261974      -0.00000000 </v>
    <v>       0.00000000       0.46523947      -0.00000000 </v>
    <v>       0.00000000       0.00000000       0.08333333 </v>
   </varray>
  </crystal>
  <varray name="positions" >
   <v>       0.00000000       0.00000000       0.14167000 </v>
   <v>       0.33333001       0.66667002       0.14083667 </v>
  </varray>
 </structure>
</modeling>
