LAMMPS (16 Mar 2018)
atom_style      charge
boundary        p p p

units		real

read_data       lammps.data
  orthogonal box = (0 0 0) to (12.665 12.665 12.665)
  1 by 1 by 1 MPI processor grid
  reading atoms ...
  168 atoms
pair_style      lj/cut 10
pair_coeff      * * 1 1

group           1 type 1 # C
32 atoms in group 1
group           2 type 2 # H
80 atoms in group 2
group           3 type 3 # O
32 atoms in group 3
group           4 type 4 # S
8 atoms in group 4
group           5 type 5 # F
8 atoms in group 5
group           6 type 6 # N
4 atoms in group 6
group           7 type 7 # Li
4 atoms in group 7

atom_modify     sort 0 0

compute         myrdf all rdf 500 1 1 1 2 1 3 1 4 1 5 1 6 1 7                                   2 2 2 3 2 4 2 5 2 6 2 7                                   3 3 3 4 3 5 3 6 3 7                                   4 4 4 5 4 6 4 7                                   5 5 5 6 5 7                                   6 6 6 7                                   7 7
fix             11 all ave/time 10 1 10 c_myrdf[*] file rdf.dat mode vector

rerun           movie.xyz dump x y z box no format xyz
Neighbor list info ...
  update every 1 steps, delay 10 steps, check yes
  max neighbors/atom: 2000, page size: 100000
  master list distance cutoff = 12
  ghost atom cutoff = 12
  binsize = 6, bins = 3 3 3
  2 neighbor lists, perpetual/occasional/extra = 1 1 0
  (1) pair lj/cut, perpetual
      attributes: half, newton on
      pair build: half/bin/atomonly/newton
      stencil: half/bin/3d/newton
      bin: standard
  (2) compute rdf, occasional, copy from (1)
      attributes: half, newton on
      pair build: copy
      stencil: none
      bin: none
Per MPI rank memory allocation (min/avg/max) = 3.425 | 3.425 | 3.425 Mbytes
Step Temp E_pair E_mol TotEng Press 
       0            0   -122.98451            0   -122.98451   -1393.6412 
      10            0   -121.40073            0   -121.40073   -1178.9877 
Loop time of 0.0330269 on 1 procs for 11 steps with 168 atoms

Performance: 28.777 ns/day, 0.834 hours/ns, 333.061 timesteps/s
88.0% CPU use with 1 MPI tasks x no OpenMP threads

MPI task timing breakdown:
Section |  min time  |  avg time  |  max time  |%varavg| %total
---------------------------------------------------------------
Pair    | 0          | 0          | 0          |   0.0 |  0.00
Neigh   | 0          | 0          | 0          |   0.0 |  0.00
Comm    | 0          | 0          | 0          |   0.0 |  0.00
Output  | 0          | 0          | 0          |   0.0 |  0.00
Modify  | 0          | 0          | 0          |   0.0 |  0.00
Other   |            | 0.03303    |            |       |100.00

Nlocal:    168 ave 168 max 168 min
Histogram: 1 0 0 0 0 0 0 0 0 0
Nghost:    3939 ave 3939 max 3939 min
Histogram: 1 0 0 0 0 0 0 0 0 0
Neighs:    49841 ave 49841 max 49841 min
Histogram: 1 0 0 0 0 0 0 0 0 0

Total # of neighbors = 49841
Ave neighs/atom = 296.673
Neighbor list builds = 0
Dangerous builds = 0



Total wall time: 0:00:00
