ITEM: TIMESTEP
0
ITEM: NUMBER OF ATOMS
1737
ITEM: BOX BOUNDS pp pp pp
0 17.324
0 39.708
0 33.947
ITEM: ATOMS id type x y z vx vy vz 
1 2 1.65 7.977 23.979 0 0 0 
2 2 16.47 20.6 8.871 0 0 0 
3 2 1.629 14.617 25.155 0 0 0 
4 2 16.448 27.241 10.047 0 0 0 
5 2 13.569 25.538 8.915 0 0 0 
6 2 16.074 12.915 24.022 0 0 0 
7 2 1.985 22.237 10.012 0 0 0 
8 2 4.489 9.613 25.12 0 0 0 
9 2 13.577 28.864 9.435 0 0 0 
10 2 16.082 16.241 24.542 0 0 0 
11 2 1.611 11.275 24.615 0 0 0 
12 1 16.431 23.899 9.507 0 0 0 
13 3 14.633 30.121 10.437 0 0 0 
14 3 17.137 17.498 25.545 0 0 0 
15 3 12.531 27.592 8.456 0 0 0 
16 3 15.036 14.968 23.563 0 0 0 
17 3 15.183 28.601 8.453 0 0 0 
18 3 0.363 15.977 23.56 0 0 0 
19 3 11.986 29.161 10.443 0 0 0 
20 3 14.49 16.538 25.551 0 0 0 
21 3 0.582 10.03 23.567 0 0 0 
22 3 15.402 22.654 8.459 0 0 0 
23 3 2.641 12.533 25.634 0 0 0 
24 3 0.136 25.157 10.526 0 0 0 
25 3 3.213 10.984 23.637 0 0 0 
26 3 0.708 23.608 8.53 0 0 0 
27 3 0.003 11.518 25.593 0 0 0 
28 3 14.823 24.142 10.485 0 0 0 
29 3 14.138 27.344 10.463 0 0 0 
30 3 16.643 14.721 25.57 0 0 0 
31 3 13.008 30.37 8.433 0 0 0 
32 3 15.513 17.747 23.541 0 0 0 
33 3 1.064 12.799 23.602 0 0 0 
34 3 15.883 25.422 8.494 0 0 0 
35 3 2.185 9.738 25.607 0 0 0 
36 3 17.005 22.361 10.499 0 0 0 
37 3 0.388 24.174 13.879 0 0 0 
38 3 0.374 11.056 20.118 0 0 0 
39 3 15.193 23.679 5.01 0 0 0 
40 3 2.03 22.277 12.565 0 0 0 
41 3 16.195 21.242 13.282 0 0 0 
42 3 14.911 25.125 13.233 0 0 0 
43 4 17.317 26.168 5.68 0 0 0 
44 3 2.498 13.545 20.788 0 0 0 
45 4 1.962 25.39 6.405 0 0 0 
46 3 4.467 12.767 21.512 0 0 0 
47 3 2.892 11.353 20.801 0 0 0 
48 3 0.776 25.18 5.922 0 0 0 
49 5 3.28 12.556 21.03 0 0 0 
50 4 14.916 29.784 11.195 0 0 0 
51 4 0.097 17.161 26.302 0 0 0 
52 4 12.35 27.644 7.554 0 0 0 
53 4 14.855 15.021 22.661 0 0 0 
54 4 15.045 28.531 7.539 0 0 0 
55 4 0.226 15.907 22.646 0 0 0 
56 4 12.09 29.512 11.248 0 0 0 
57 4 14.594 16.888 26.355 0 0 0 
58 4 0.442 10.117 22.661 0 0 0 
59 4 15.261 22.741 7.554 0 0 0 
60 4 2.901 12.146 26.423 0 0 0 
61 4 0.397 24.769 11.316 0 0 0 
62 4 3.057 10.95 22.722 0 0 0 
63 4 0.553 23.574 7.614 0 0 0 
64 4 0.058 11.965 26.378 0 0 0 
65 4 14.878 24.589 11.27 0 0 0 
66 4 13.907 26.998 11.285 0 0 0 
67 4 16.411 14.375 26.393 0 0 0 
68 4 13.421 30.427 7.622 0 0 0 
69 4 15.925 17.803 22.729 0 0 0 
70 4 1.36 12.736 22.782 0 0 0 
71 4 16.179 25.36 7.675 0 0 0 
72 4 1.976 9.38 26.431 0 0 0 
73 4 16.795 22.003 11.323 0 0 0 
74 4 0.823 23.487 13.468 0 0 0 
75 4 16.745 23.944 13.574 0 0 0 
76 4 17.192 11.673 20.561 0 0 0 
77 4 14.688 24.297 5.454 0 0 0 
78 4 1.204 11.165 20.433 0 0 0 
79 4 16.023 23.788 5.325 0 0 0 
80 4 2.863 22.357 12.789 0 0 0 
81 4 1.845 21.409 12.819 0 0 0 
82 4 17.01 20.732 13.106 0 0 0 
83 4 15.579 20.526 13.423 0 0 0 
84 4 14.078 25.525 13.227 0 0 0 
85 4 15.565 25.739 13.03 0 0 0 
86 2 4.92 20.6 8.871 0 0 0 
87 2 7.425 7.977 23.979 0 0 0 
88 2 4.899 27.241 10.047 0 0 0 
89 1 7.403 14.617 25.155 0 0 0 
90 2 2.02 25.538 8.915 0 0 0 
91 2 4.524 12.915 24.022 0 0 0 
92 2 7.759 22.237 10.012 0 0 0 
93 2 10.264 9.613 25.12 0 0 0 
94 1 2.028 28.864 9.435 0 0 0 
95 2 4.532 16.241 24.542 0 0 0 
96 2 4.881 23.899 9.507 0 0 0 
97 2 7.386 11.275 24.615 0 0 0 
98 3 3.083 30.121 10.437 0 0 0 
99 3 5.588 17.498 25.545 0 0 0 
100 3 0.982 27.592 8.456 0 0 0 
101 3 3.487 14.968 23.563 0 0 0 
102 3 3.633 28.601 8.453 0 0 0 
103 3 6.138 15.977 23.56 0 0 0 
104 3 0.436 29.161 10.443 0 0 0 
105 3 2.941 16.538 25.551 0 0 0 
106 3 3.852 22.654 8.459 0 0 0 
107 3 6.357 10.03 23.567 0 0 0 
108 3 5.911 25.157 10.526 0 0 0 
109 3 8.415 12.533 25.634 0 0 0 
110 3 6.483 23.608 8.53 0 0 0 
111 3 8.987 10.984 23.637 0 0 0 
112 3 3.273 24.142 10.485 0 0 0 
113 3 5.778 11.518 25.593 0 0 0 
114 3 2.589 27.344 10.463 0 0 0 
115 3 5.093 14.721 25.57 0 0 0 
116 3 1.459 30.37 8.433 0 0 0 
117 3 3.963 17.747 23.541 0 0 0 
118 3 4.334 25.422 8.494 0 0 0 
119 3 6.838 12.799 23.602 0 0 0 
120 3 5.455 22.361 10.499 0 0 0 
121 3 7.96 9.738 25.607 0 0 0 
122 3 6.163 24.174 13.879 0 0 0 
123 3 3.644 23.679 5.01 0 0 0 
124 3 6.148 11.056 20.118 0 0 0 
125 3 7.805 22.277 12.565 0 0 0 
126 3 4.645 21.242 13.282 0 0 0 
127 3 3.362 25.125 13.233 0 0 0 
128 3 5.768 26.168 5.68 0 0 0 
129 3 7.737 25.39 6.405 0 0 0 
130 4 10.242 12.767 21.512 0 0 0 
131 3 6.162 23.976 5.693 0 0 0 
132 4 8.667 11.353 20.801 0 0 0 
133 5 6.551 25.18 5.922 0 0 0 
134 3 9.055 12.556 21.03 0 0 0 
135 4 3.367 29.784 11.195 0 0 0 
136 4 5.872 17.161 26.302 0 0 0 
137 4 0.801 27.644 7.554 0 0 0 
138 4 3.305 15.021 22.661 0 0 0 
139 4 3.496 28.531 7.539 0 0 0 
140 4 6 15.907 22.646 0 0 0 
141 4 0.54 29.512 11.248 0 0 0 
142 4 3.045 16.888 26.355 0 0 0 
143 4 3.712 22.741 7.554 0 0 0 
144 4 6.217 10.117 22.661 0 0 0 
145 4 6.171 24.769 11.316 0 0 0 
146 4 8.676 12.146 26.423 0 0 0 
147 4 6.327 23.574 7.614 0 0 0 
148 4 8.832 10.95 22.722 0 0 0 
149 4 3.328 24.589 11.27 0 0 0 
150 4 5.833 11.965 26.378 0 0 0 
151 4 2.357 26.998 11.285 0 0 0 
152 4 4.862 14.375 26.393 0 0 0 
153 4 1.871 30.427 7.622 0 0 0 
154 4 4.376 17.803 22.729 0 0 0 
155 4 4.63 25.36 7.675 0 0 0 
156 4 7.134 12.736 22.782 0 0 0 
157 4 5.246 22.003 11.323 0 0 0 
158 4 7.751 9.38 26.431 0 0 0 
159 4 6.598 23.487 13.468 0 0 0 
160 4 5.196 23.944 13.574 0 0 0 
161 4 3.139 24.297 5.454 0 0 0 
162 4 5.643 11.673 20.561 0 0 0 
163 4 4.474 23.788 5.325 0 0 0 
164 4 6.978 11.165 20.433 0 0 0 
165 4 8.638 22.357 12.789 0 0 0 
166 4 7.62 21.409 12.819 0 0 0 
167 4 5.461 20.732 13.106 0 0 0 
168 4 4.029 20.526 13.423 0 0 0 
169 4 2.529 25.525 13.227 0 0 0 
170 4 4.015 25.739 13.03 0 0 0 
171 2 10.695 20.6 8.871 0 0 0 
172 2 13.2 7.977 23.979 0 0 0 
173 2 10.673 27.241 10.047 0 0 0 
174 2 13.178 14.617 25.155 0 0 0 
175 1 7.794 25.538 8.915 0 0 0 
176 2 10.299 12.915 24.022 0 0 0 
177 2 13.534 22.237 10.012 0 0 0 
178 1 16.038 9.613 25.12 0 0 0 
179 2 7.802 28.864 9.435 0 0 0 
180 2 10.307 16.241 24.542 0 0 0 
181 2 10.656 23.899 9.507 0 0 0 
182 2 13.16 11.275 24.615 0 0 0 
183 3 8.858 30.121 10.437 0 0 0 
184 3 11.363 17.498 25.545 0 0 0 
185 3 6.757 27.592 8.456 0 0 0 
186 3 9.261 14.968 23.563 0 0 0 
187 3 9.408 28.601 8.453 0 0 0 
188 3 11.912 15.977 23.56 0 0 0 
189 3 6.211 29.161 10.443 0 0 0 
190 3 8.716 16.538 25.551 0 0 0 
191 3 9.627 22.654 8.459 0 0 0 
192 3 12.132 10.03 23.567 0 0 0 
193 3 11.686 25.157 10.526 0 0 0 
194 3 14.19 12.533 25.634 0 0 0 
195 3 12.258 23.608 8.53 0 0 0 
196 3 14.762 10.984 23.637 0 0 0 
197 3 9.048 24.142 10.485 0 0 0 
198 3 11.553 11.518 25.593 0 0 0 
199 3 8.364 27.344 10.463 0 0 0 
200 3 10.868 14.721 25.57 0 0 0 
201 3 7.233 30.37 8.433 0 0 0 
202 3 9.738 17.747 23.541 0 0 0 
203 3 10.109 25.422 8.494 0 0 0 
204 3 12.613 12.799 23.602 0 0 0 
205 3 11.23 22.361 10.499 0 0 0 
206 3 13.735 9.738 25.607 0 0 0 
207 3 11.938 24.174 13.879 0 0 0 
208 3 9.419 23.679 5.01 0 0 0 
209 3 11.923 11.056 20.118 0 0 0 
210 3 13.579 22.277 12.565 0 0 0 
211 3 10.42 21.242 13.282 0 0 0 
212 3 9.137 25.125 13.233 0 0 0 
213 4 11.543 26.168 5.68 0 0 0 
214 4 14.047 13.545 20.788 0 0 0 
215 4 16.016 12.767 21.512 0 0 0 
216 4 11.937 23.976 5.693 0 0 0 
217 3 12.325 25.18 5.922 0 0 0 
218 3 14.83 12.556 21.03 0 0 0 
219 4 9.142 29.784 11.195 0 0 0 
220 4 11.646 17.161 26.302 0 0 0 
221 4 6.575 27.644 7.554 0 0 0 
222 4 9.08 15.021 22.661 0 0 0 
223 4 9.271 28.531 7.539 0 0 0 
224 4 11.775 15.907 22.646 0 0 0 
225 4 6.315 29.512 11.248 0 0 0 
226 4 8.819 16.888 26.355 0 0 0 
227 4 9.487 22.741 7.554 0 0 0 
228 4 11.991 10.117 22.661 0 0 0 
229 4 11.946 24.769 11.316 0 0 0 
230 4 14.451 12.146 26.423 0 0 0 
231 4 12.102 23.574 7.614 0 0 0 
232 4 14.607 10.95 22.722 0 0 0 
233 4 9.103 24.589 11.27 0 0 0 
234 4 11.608 11.965 26.378 0 0 0 
235 4 8.132 26.998 11.285 0 0 0 
236 4 10.636 14.375 26.393 0 0 0 
237 4 7.646 30.427 7.622 0 0 0 
238 4 10.151 17.803 22.729 0 0 0 
239 4 10.405 25.36 7.675 0 0 0 
240 4 12.909 12.736 22.782 0 0 0 
241 4 11.021 22.003 11.323 0 0 0 
242 4 13.525 9.38 26.431 0 0 0 
243 4 12.373 23.487 13.468 0 0 0 
244 4 10.97 23.944 13.574 0 0 0 
245 4 8.913 24.297 5.454 0 0 0 
246 4 11.418 11.673 20.561 0 0 0 
247 4 10.248 23.788 5.325 0 0 0 
248 4 12.753 11.165 20.433 0 0 0 
249 4 14.412 22.357 12.789 0 0 0 
250 4 13.394 21.409 12.819 0 0 0 
251 4 11.236 20.732 13.106 0 0 0 
252 4 9.804 20.526 13.423 0 0 0 
253 4 8.304 25.525 13.227 0 0 0 
254 4 9.79 25.739 13.03 0 0 0 
255 2 0.408 24.215 16.425 0 0 0 
256 2 0.386 30.856 17.601 0 0 0 
257 2 14.831 29.153 16.468 0 0 0 
258 2 3.247 25.852 17.566 0 0 0 
259 2 14.839 32.48 16.989 0 0 0 
260 2 0.369 27.514 17.061 0 0 0 
261 3 15.895 33.737 17.991 0 0 0 
262 3 13.793 31.207 16.009 0 0 0 
263 3 16.445 32.216 16.006 0 0 0 
264 3 13.248 32.777 17.997 0 0 0 
265 3 16.664 26.269 16.013 0 0 0 
266 3 1.398 28.772 18.08 0 0 0 
267 3 1.97 27.223 16.083 0 0 0 
268 3 16.085 27.757 18.039 0 0 0 
269 3 15.4 30.959 18.016 0 0 0 
270 3 14.27 33.986 15.987 0 0 0 
271 3 17.145 29.037 16.048 0 0 0 
272 3 0.943 25.977 18.053 0 0 0 
273 3 1.65 27.789 21.433 0 0 0 
274 3 16.431 0.704 6.326 0 0 0 
275 3 16.455 27.295 12.564 0 0 0 
276 3 0.787 38.516 5.011 0 0 0 
277 3 3.292 25.892 20.119 0 0 0 
278 3 0.133 24.857 20.836 0 0 0 
279 3 14.952 37.481 5.728 0 0 0 
280 3 13.63 1.656 5.68 0 0 0 
281 3 16.173 28.741 20.787 0 0 0 
282 4 1.255 29.783 13.234 0 0 0 
283 4 1.65 27.592 13.247 0 0 0 
284 3 2.038 28.795 13.476 0 0 0 
285 4 16.178 33.399 18.748 0 0 0 
286 4 13.612 31.26 15.108 0 0 0 
287 4 16.307 32.146 15.092 0 0 0 
288 4 13.352 33.127 18.801 0 0 0 
289 4 16.523 26.356 15.108 0 0 0 
290 4 1.659 28.385 18.869 0 0 0 
291 4 1.815 27.189 15.168 0 0 0 
292 4 16.14 28.204 18.824 0 0 0 
293 4 15.169 30.614 18.839 0 0 0 
294 4 14.683 34.042 15.176 0 0 0 
295 4 0.117 28.975 15.228 0 0 0 
296 4 0.733 25.618 18.877 0 0 0 
297 4 2.085 27.102 21.022 0 0 0 
298 4 16.866 0.017 5.915 0 0 0 
299 4 0.683 27.559 21.128 0 0 0 
300 4 15.463 0.475 6.02 0 0 0 
301 4 15.95 27.912 13.008 0 0 0 
302 4 17.285 27.404 12.879 0 0 0 
303 4 1.62 38.596 5.235 0 0 0 
304 4 4.125 25.972 20.342 0 0 0 
305 4 0.602 37.647 5.265 0 0 0 
306 4 3.107 25.024 20.373 0 0 0 
307 4 0.948 24.347 20.66 0 0 0 
308 4 15.768 36.971 5.552 0 0 0 
309 4 16.841 24.142 20.977 0 0 0 
310 4 14.336 36.765 5.869 0 0 0 
311 4 12.797 2.056 5.673 0 0 0 
312 4 15.34 29.14 20.78 0 0 0 
313 4 14.283 2.269 5.476 0 0 0 
314 4 16.827 29.354 20.584 0 0 0 
315 2 6.182 24.215 16.425 0 0 0 
316 2 6.161 30.856 17.601 0 0 0 
317 2 3.282 29.153 16.468 0 0 0 
318 1 9.021 25.852 17.566 0 0 0 
319 2 3.29 32.48 16.989 0 0 0 
320 2 6.143 27.514 17.061 0 0 0 
321 3 4.345 33.737 17.991 0 0 0 
322 3 2.244 31.207 16.009 0 0 0 
323 3 4.895 32.216 16.006 0 0 0 
324 3 1.698 32.777 17.997 0 0 0 
325 3 5.115 26.269 16.013 0 0 0 
326 3 7.173 28.772 18.08 0 0 0 
327 3 7.745 27.223 16.083 0 0 0 
328 3 4.535 27.757 18.039 0 0 0 
329 3 3.851 30.959 18.016 0 0 0 
330 3 2.721 33.986 15.987 0 0 0 
331 3 5.596 29.037 16.048 0 0 0 
332 3 6.718 25.977 18.053 0 0 0 
333 3 4.882 0.704 6.326 0 0 0 
334 3 7.425 27.789 21.433 0 0 0 
335 3 4.906 27.295 12.564 0 0 0 
336 3 6.562 38.516 5.011 0 0 0 
337 3 9.067 25.892 20.119 0 0 0 
338 3 3.403 37.481 5.728 0 0 0 
339 3 5.907 24.857 20.836 0 0 0 
340 3 2.08 1.656 5.68 0 0 0 
341 3 4.624 28.741 20.787 0 0 0 
342 3 7.03 29.783 13.234 0 0 0 
343 3 8.999 29.005 13.959 0 0 0 
344 3 7.425 27.592 13.247 0 0 0 
345 5 7.813 28.795 13.476 0 0 0 
346 4 4.629 33.399 18.748 0 0 0 
347 4 2.063 31.26 15.108 0 0 0 
348 4 4.758 32.146 15.092 0 0 0 
349 4 1.802 33.127 18.801 0 0 0 
350 4 4.974 26.356 15.108 0 0 0 
351 4 7.433 28.385 18.869 0 0 0 
352 4 7.589 27.189 15.168 0 0 0 
353 4 4.59 28.204 18.824 0 0 0 
354 4 3.619 30.614 18.839 0 0 0 
355 4 3.134 34.042 15.176 0 0 0 
356 4 5.892 28.975 15.228 0 0 0 
357 4 6.508 25.618 18.877 0 0 0 
358 4 5.317 0.017 5.915 0 0 0 
359 4 7.86 27.102 21.022 0 0 0 
360 4 3.914 0.475 6.02 0 0 0 
361 4 6.458 27.559 21.128 0 0 0 
362 4 4.401 27.912 13.008 0 0 0 
363 4 5.736 27.404 12.879 0 0 0 
364 4 7.395 38.596 5.235 0 0 0 
365 4 9.9 25.972 20.342 0 0 0 
366 4 6.377 37.647 5.265 0 0 0 
367 4 8.882 25.024 20.373 0 0 0 
368 4 4.218 36.971 5.552 0 0 0 
369 4 6.723 24.347 20.66 0 0 0 
370 4 2.787 36.765 5.869 0 0 0 
371 4 5.291 24.142 20.977 0 0 0 
372 4 1.248 2.056 5.673 0 0 0 
373 4 3.791 29.14 20.78 0 0 0 
374 4 2.734 2.269 5.476 0 0 0 
375 4 5.277 29.354 20.584 0 0 0 
376 2 11.957 24.215 16.425 0 0 0 
377 2 11.935 30.856 17.601 0 0 0 
378 2 9.056 29.153 16.468 0 0 0 
379 1 14.796 25.852 17.566 0 0 0 
380 2 9.064 32.48 16.989 0 0 0 
381 2 11.918 27.514 17.061 0 0 0 
382 3 10.12 33.737 17.991 0 0 0 
383 3 8.019 31.207 16.009 0 0 0 
384 3 10.67 32.216 16.006 0 0 0 
385 3 7.473 32.777 17.997 0 0 0 
386 3 10.889 26.269 16.013 0 0 0 
387 3 12.948 28.772 18.08 0 0 0 
388 3 13.52 27.223 16.083 0 0 0 
389 3 10.31 27.757 18.039 0 0 0 
390 3 9.626 30.959 18.016 0 0 0 
391 3 8.495 33.986 15.987 0 0 0 
392 3 11.371 29.037 16.048 0 0 0 
393 3 12.492 25.977 18.053 0 0 0 
394 3 10.656 0.704 6.326 0 0 0 
395 3 13.2 27.789 21.433 0 0 0 
396 3 10.681 27.295 12.564 0 0 0 
397 3 12.337 38.516 5.011 0 0 0 
398 3 14.841 25.892 20.119 0 0 0 
399 3 9.177 37.481 5.728 0 0 0 
400 3 11.682 24.857 20.836 0 0 0 
401 3 7.855 1.656 5.68 0 0 0 
402 3 10.399 28.741 20.787 0 0 0 
403 4 14.774 29.005 13.959 0 0 0 
404 3 13.587 28.795 13.476 0 0 0 
405 4 10.404 33.399 18.748 0 0 0 
406 4 7.837 31.26 15.108 0 0 0 
407 4 10.533 32.146 15.092 0 0 0 
408 4 7.577 33.127 18.801 0 0 0 
409 4 10.749 26.356 15.108 0 0 0 
410 4 13.208 28.385 18.869 0 0 0 
411 4 13.364 27.189 15.168 0 0 0 
412 4 10.365 28.204 18.824 0 0 0 
413 4 9.394 30.614 18.839 0 0 0 
414 4 8.908 34.042 15.176 0 0 0 
415 4 11.667 28.975 15.228 0 0 0 
416 4 12.283 25.618 18.877 0 0 0 
417 4 11.091 0.017 5.915 0 0 0 
418 4 13.635 27.102 21.022 0 0 0 
419 4 9.689 0.475 6.02 0 0 0 
420 4 12.232 27.559 21.128 0 0 0 
421 4 10.175 27.912 13.008 0 0 0 
422 4 11.51 27.404 12.879 0 0 0 
423 4 13.17 38.596 5.235 0 0 0 
424 4 15.674 25.972 20.342 0 0 0 
425 4 12.152 37.647 5.265 0 0 0 
426 4 14.656 25.024 20.373 0 0 0 
427 4 9.993 36.971 5.552 0 0 0 
428 4 12.498 24.347 20.66 0 0 0 
429 4 8.562 36.765 5.869 0 0 0 
430 4 11.066 24.142 20.977 0 0 0 
431 4 7.022 2.056 5.673 0 0 0 
432 4 9.566 29.14 20.78 0 0 0 
433 4 8.508 2.269 5.476 0 0 0 
434 4 11.052 29.354 20.584 0 0 0 
435 2 0.398 14.288 16.425 0 0 0 
436 2 0.376 20.929 17.601 0 0 0 
437 2 14.821 19.226 16.468 0 0 0 
438 2 3.237 15.925 17.566 0 0 0 
439 2 14.829 22.552 16.989 0 0 0 
440 2 0.359 17.587 17.061 0 0 0 
441 3 15.885 23.81 17.991 0 0 0 
442 3 13.784 21.28 16.009 0 0 0 
443 3 16.435 22.289 16.006 0 0 0 
444 3 13.238 22.85 17.997 0 0 0 
445 3 16.654 16.342 16.013 0 0 0 
446 3 1.388 18.845 18.08 0 0 0 
447 3 1.96 17.296 16.083 0 0 0 
448 3 16.075 17.83 18.039 0 0 0 
449 3 15.391 21.032 18.016 0 0 0 
450 3 14.26 24.059 15.987 0 0 0 
451 3 17.136 19.11 16.048 0 0 0 
452 3 0.933 16.049 18.053 0 0 0 
453 3 1.641 17.862 21.433 0 0 0 
454 3 16.46 30.485 6.326 0 0 0 
455 3 16.446 17.368 12.564 0 0 0 
456 3 0.778 28.589 5.011 0 0 0 
457 3 3.282 15.965 20.119 0 0 0 
458 3 0.123 14.93 20.836 0 0 0 
459 3 14.942 27.554 5.728 0 0 0 
460 3 13.659 31.437 5.68 0 0 0 
461 3 16.164 18.814 20.787 0 0 0 
462 3 1.246 19.856 13.234 0 0 0 
463 3 3.215 19.078 13.959 0 0 0 
464 3 1.64 17.665 13.247 0 0 0 
465 5 2.028 18.868 13.476 0 0 0 
466 4 16.169 23.472 18.748 0 0 0 
467 4 13.602 21.333 15.108 0 0 0 
468 4 16.297 22.219 15.092 0 0 0 
469 4 13.342 23.2 18.801 0 0 0 
470 4 16.514 16.429 15.108 0 0 0 
471 4 1.649 18.457 18.869 0 0 0 
472 4 1.805 17.262 15.168 0 0 0 
473 4 16.13 18.277 18.824 0 0 0 
474 4 15.159 20.687 18.839 0 0 0 
475 4 14.673 24.115 15.176 0 0 0 
476 4 0.107 19.048 15.228 0 0 0 
477 4 0.724 15.691 18.877 0 0 0 
478 4 2.076 17.175 21.022 0 0 0 
479 4 16.895 29.798 5.915 0 0 0 
480 4 0.673 17.632 21.128 0 0 0 
481 4 15.493 30.256 6.02 0 0 0 
482 4 15.94 17.985 13.008 0 0 0 
483 4 17.275 17.477 12.879 0 0 0 
484 4 1.611 28.669 5.235 0 0 0 
485 4 4.115 16.045 20.342 0 0 0 
486 4 0.593 27.72 5.265 0 0 0 
487 4 3.097 15.097 20.373 0 0 0 
488 4 0.938 14.42 20.66 0 0 0 
489 4 15.758 27.044 5.552 0 0 0 
490 4 16.831 14.215 20.977 0 0 0 
491 4 14.327 26.838 5.869 0 0 0 
492 4 12.826 31.837 5.673 0 0 0 
493 4 15.331 19.213 20.78 0 0 0 
494 4 14.312 32.051 5.476 0 0 0 
495 4 16.817 19.427 20.584 0 0 0 
496 2 6.173 14.288 16.425 0 0 0 
497 2 6.151 20.929 17.601 0 0 0 
498 2 3.272 19.226 16.468 0 0 0 
499 2 9.012 15.925 17.566 0 0 0 
500 1 3.28 22.552 16.989 0 0 0 
501 1 6.133 17.587 17.061 0 0 0 
502 3 4.336 23.81 17.991 0 0 0 
503 3 2.234 21.28 16.009 0 0 0 
504 3 4.885 22.289 16.006 0 0 0 
505 3 1.689 22.85 17.997 0 0 0 
506 3 5.105 16.342 16.013 0 0 0 
507 3 7.163 18.845 18.08 0 0 0 
508 3 7.735 17.296 16.083 0 0 0 
509 3 4.526 17.83 18.039 0 0 0 
510 3 3.841 21.032 18.016 0 0 0 
511 3 2.711 24.059 15.987 0 0 0 
512 3 5.586 19.11 16.048 0 0 0 
513 3 6.708 16.049 18.053 0 0 0 
514 3 4.911 30.485 6.326 0 0 0 
515 3 7.415 17.862 21.433 0 0 0 
516 3 4.896 17.368 12.564 0 0 0 
517 3 6.552 28.589 5.011 0 0 0 
518 3 9.057 15.965 20.119 0 0 0 
519 3 3.393 27.554 5.728 0 0 0 
520 3 5.898 14.93 20.836 0 0 0 
521 3 2.11 31.437 5.68 0 0 0 
522 3 4.614 18.814 20.787 0 0 0 
523 4 8.989 19.078 13.959 0 0 0 
524 4 7.415 17.665 13.247 0 0 0 
525 3 7.803 18.868 13.476 0 0 0 
526 4 4.619 23.472 18.748 0 0 0 
527 4 2.053 21.333 15.108 0 0 0 
528 4 4.748 22.219 15.092 0 0 0 
529 4 1.792 23.2 18.801 0 0 0 
530 4 4.964 16.429 15.108 0 0 0 
531 4 7.424 18.457 18.869 0 0 0 
532 4 7.58 17.262 15.168 0 0 0 
533 4 4.581 18.277 18.824 0 0 0 
534 4 3.609 20.687 18.839 0 0 0 
535 4 3.124 24.115 15.176 0 0 0 
536 4 5.882 19.048 15.228 0 0 0 
537 4 6.498 15.691 18.877 0 0 0 
538 4 5.346 29.798 5.915 0 0 0 
539 4 7.85 17.175 21.022 0 0 0 
540 4 3.943 30.256 6.02 0 0 0 
541 4 6.448 17.632 21.128 0 0 0 
542 4 4.391 17.985 13.008 0 0 0 
543 4 5.726 17.477 12.879 0 0 0 
544 4 7.385 28.669 5.235 0 0 0 
545 4 9.89 16.045 20.342 0 0 0 
546 4 6.367 27.72 5.265 0 0 0 
547 4 8.872 15.097 20.373 0 0 0 
548 4 4.209 27.044 5.552 0 0 0 
549 4 6.713 14.42 20.66 0 0 0 
550 4 2.777 26.838 5.869 0 0 0 
551 4 5.282 14.215 20.977 0 0 0 
552 4 1.277 31.837 5.673 0 0 0 
553 4 3.781 19.213 20.78 0 0 0 
554 4 2.763 32.051 5.476 0 0 0 
555 4 5.268 19.427 20.584 0 0 0 
556 2 11.947 14.288 16.425 0 0 0 
557 2 11.926 20.929 17.601 0 0 0 
558 2 9.047 19.226 16.468 0 0 0 
559 2 14.786 15.925 17.566 0 0 0 
560 2 9.055 22.552 16.989 0 0 0 
561 2 11.908 17.587 17.061 0 0 0 
562 3 10.11 23.81 17.991 0 0 0 
563 3 8.009 21.28 16.009 0 0 0 
564 3 10.66 22.289 16.006 0 0 0 
565 3 7.463 22.85 17.997 0 0 0 
566 3 10.879 16.342 16.013 0 0 0 
567 3 12.938 18.845 18.08 0 0 0 
568 3 13.51 17.296 16.083 0 0 0 
569 3 10.3 17.83 18.039 0 0 0 
570 3 9.616 21.032 18.016 0 0 0 
571 3 8.486 24.059 15.987 0 0 0 
572 3 11.361 19.11 16.048 0 0 0 
573 3 12.482 16.049 18.053 0 0 0 
574 3 10.686 30.485 6.326 0 0 0 
575 3 13.19 17.862 21.433 0 0 0 
576 3 10.671 17.368 12.564 0 0 0 
577 3 12.327 28.589 5.011 0 0 0 
578 3 14.832 15.965 20.119 0 0 0 
579 3 9.168 27.554 5.728 0 0 0 
580 3 11.672 14.93 20.836 0 0 0 
581 3 7.884 31.437 5.68 0 0 0 
582 3 10.389 18.814 20.787 0 0 0 
583 4 12.795 19.856 13.234 0 0 0 
584 4 14.764 19.078 13.959 0 0 0 
585 3 13.578 18.868 13.476 0 0 0 
586 4 10.394 23.472 18.748 0 0 0 
587 4 7.828 21.333 15.108 0 0 0 
588 4 10.523 22.219 15.092 0 0 0 
589 4 7.567 23.2 18.801 0 0 0 
590 4 10.739 16.429 15.108 0 0 0 
591 4 13.198 18.457 18.869 0 0 0 
592 4 13.354 17.262 15.168 0 0 0 
593 4 10.355 18.277 18.824 0 0 0 
594 4 9.384 20.687 18.839 0 0 0 
595 4 8.898 24.115 15.176 0 0 0 
596 4 11.657 19.048 15.228 0 0 0 
597 4 12.273 15.691 18.877 0 0 0 
598 4 11.12 29.798 5.915 0 0 0 
599 4 13.625 17.175 21.022 0 0 0 
600 4 9.718 30.256 6.02 0 0 0 
601 4 12.223 17.632 21.128 0 0 0 
602 4 10.166 17.985 13.008 0 0 0 
603 4 11.501 17.477 12.879 0 0 0 
604 4 13.16 28.669 5.235 0 0 0 
605 4 15.665 16.045 20.342 0 0 0 
606 4 12.142 27.72 5.265 0 0 0 
607 4 14.647 15.097 20.373 0 0 0 
608 4 9.983 27.044 5.552 0 0 0 
609 4 12.488 14.42 20.66 0 0 0 
610 4 8.552 26.838 5.869 0 0 0 
611 4 11.056 14.215 20.977 0 0 0 
612 4 7.051 31.837 5.673 0 0 0 
613 4 9.556 19.213 20.78 0 0 0 
614 4 8.538 32.051 5.476 0 0 0 
615 4 11.042 19.427 20.584 0 0 0 
616 2 1.66 17.904 23.979 0 0 0 
617 2 16.479 30.527 8.871 0 0 0 
618 2 1.638 24.544 25.155 0 0 0 
619 2 16.458 37.168 10.047 0 0 0 
620 2 13.579 35.465 8.915 0 0 0 
621 2 16.083 22.842 24.022 0 0 0 
622 2 1.994 32.164 10.012 0 0 0 
623 2 4.499 19.541 25.12 0 0 0 
624 2 13.587 38.791 9.435 0 0 0 
625 1 16.091 26.168 24.542 0 0 0 
626 2 1.621 21.202 24.615 0 0 0 
627 2 16.44 33.826 9.507 0 0 0 
628 3 14.643 0.34 10.437 0 0 0 
629 3 17.147 27.425 25.545 0 0 0 
630 3 12.541 37.519 8.456 0 0 0 
631 3 15.046 24.895 23.563 0 0 0 
632 3 15.192 38.528 8.453 0 0 0 
633 3 0.373 25.904 23.56 0 0 0 
634 3 11.996 39.088 10.443 0 0 0 
635 3 14.5 26.465 25.551 0 0 0 
636 3 0.592 19.957 23.567 0 0 0 
637 3 15.412 32.581 8.459 0 0 0 
638 3 2.65 22.46 25.634 0 0 0 
639 3 0.146 35.084 10.526 0 0 0 
640 3 3.222 20.911 23.637 0 0 0 
641 3 0.718 33.535 8.53 0 0 0 
642 3 0.013 21.445 25.593 0 0 0 
643 3 14.832 34.069 10.485 0 0 0 
644 3 14.148 37.271 10.463 0 0 0 
645 3 16.653 24.648 25.57 0 0 0 
646 3 13.018 0.589 8.433 0 0 0 
647 3 15.522 27.674 23.541 0 0 0 
648 3 1.074 22.726 23.602 0 0 0 
649 3 15.893 35.349 8.494 0 0 0 
650 3 2.195 19.665 25.607 0 0 0 
651 3 17.015 32.288 10.499 0 0 0 
652 3 0.398 34.101 13.879 0 0 0 
653 3 0.383 20.983 20.118 0 0 0 
654 3 15.203 33.606 5.01 0 0 0 
655 3 2.04 32.204 12.565 0 0 0 
656 3 16.204 31.169 13.282 0 0 0 
657 3 14.921 35.052 13.233 0 0 0 
658 3 0.003 36.095 5.68 0 0 0 
659 4 2.508 23.472 20.788 0 0 0 
660 3 1.972 35.317 6.405 0 0 0 
661 4 4.477 22.694 21.512 0 0 0 
662 3 0.398 33.903 5.693 0 0 0 
663 5 0.786 35.107 5.922 0 0 0 
664 3 3.29 22.483 21.03 0 0 0 
665 4 14.926 0.003 11.195 0 0 0 
666 4 0.107 27.088 26.302 0 0 0 
667 4 12.36 37.572 7.554 0 0 0 
668 4 14.864 24.948 22.661 0 0 0 
669 4 15.055 38.458 7.539 0 0 0 
670 4 0.235 25.834 22.646 0 0 0 
671 4 12.099 39.439 11.248 0 0 0 
672 4 14.604 26.815 26.355 0 0 0 
673 4 0.452 20.044 22.661 0 0 0 
674 4 15.271 32.668 7.554 0 0 0 
675 4 2.911 22.073 26.423 0 0 0 
676 4 0.407 34.696 11.316 0 0 0 
677 4 3.067 20.877 22.722 0 0 0 
678 4 0.562 33.501 7.614 0 0 0 
679 4 0.068 21.892 26.378 0 0 0 
680 4 14.887 34.516 11.27 0 0 0 
681 4 13.916 36.925 11.285 0 0 0 
682 4 16.421 24.302 26.393 0 0 0 
683 4 13.431 0.646 7.622 0 0 0 
684 4 15.935 27.73 22.729 0 0 0 
685 4 1.369 22.663 22.782 0 0 0 
686 4 16.189 35.287 7.675 0 0 0 
687 4 1.986 19.307 26.431 0 0 0 
688 4 16.805 31.93 11.323 0 0 0 
689 4 0.833 33.414 13.468 0 0 0 
690 4 16.755 33.871 13.574 0 0 0 
691 4 17.202 21.6 20.561 0 0 0 
692 4 14.698 34.224 5.454 0 0 0 
693 4 1.213 21.092 20.433 0 0 0 
694 4 16.033 33.716 5.325 0 0 0 
695 4 2.873 32.284 12.789 0 0 0 
696 4 1.855 31.336 12.819 0 0 0 
697 4 17.02 30.659 13.106 0 0 0 
698 4 15.589 30.454 13.423 0 0 0 
699 4 14.088 35.452 13.227 0 0 0 
700 4 15.574 35.666 13.03 0 0 0 
701 1 4.93 30.527 8.871 0 0 0 
702 1 7.435 17.904 23.979 0 0 0 
703 2 4.908 37.168 10.047 0 0 0 
704 2 7.413 24.544 25.155 0 0 0 
705 2 2.029 35.465 8.915 0 0 0 
706 2 4.534 22.842 24.022 0 0 0 
707 2 7.769 32.164 10.012 0 0 0 
708 2 10.274 19.541 25.12 0 0 0 
709 2 2.037 38.791 9.435 0 0 0 
710 2 4.542 26.168 24.542 0 0 0 
711 2 4.891 33.826 9.507 0 0 0 
712 2 7.395 21.202 24.615 0 0 0 
713 3 3.093 0.34 10.437 0 0 0 
714 3 5.598 27.425 25.545 0 0 0 
715 3 0.992 37.519 8.456 0 0 0 
716 3 3.496 24.895 23.563 0 0 0 
717 3 3.643 38.528 8.453 0 0 0 
718 3 6.147 25.904 23.56 0 0 0 
719 3 0.446 39.088 10.443 0 0 0 
720 3 2.951 26.465 25.551 0 0 0 
721 3 3.862 32.581 8.459 0 0 0 
722 3 6.367 19.957 23.567 0 0 0 
723 3 5.921 35.084 10.526 0 0 0 
724 3 8.425 22.46 25.634 0 0 0 
725 3 6.493 33.535 8.53 0 0 0 
726 3 8.997 20.911 23.637 0 0 0 
727 3 3.283 34.069 10.485 0 0 0 
728 3 5.788 21.445 25.593 0 0 0 
729 3 2.599 37.271 10.463 0 0 0 
730 3 5.103 24.648 25.57 0 0 0 
731 3 1.468 0.589 8.433 0 0 0 
732 3 3.973 27.674 23.541 0 0 0 
733 3 4.344 35.349 8.494 0 0 0 
734 3 6.848 22.726 23.602 0 0 0 
735 3 5.465 32.288 10.499 0 0 0 
736 3 7.97 19.665 25.607 0 0 0 
737 3 6.173 34.101 13.879 0 0 0 
738 3 3.654 33.606 5.01 0 0 0 
739 3 6.158 20.983 20.118 0 0 0 
740 3 7.814 32.204 12.565 0 0 0 
741 3 4.655 31.169 13.282 0 0 0 
742 3 3.372 35.052 13.233 0 0 0 
743 4 5.778 36.095 5.68 0 0 0 
744 3 8.282 23.472 20.788 0 0 0 
745 4 7.747 35.317 6.405 0 0 0 
746 3 10.251 22.694 21.512 0 0 0 
747 3 8.677 21.28 20.801 0 0 0 
748 3 6.56 35.107 5.922 0 0 0 
749 5 9.065 22.483 21.03 0 0 0 
750 4 3.377 0.003 11.195 0 0 0 
751 4 5.881 27.088 26.302 0 0 0 
752 4 0.81 37.572 7.554 0 0 0 
753 4 3.315 24.948 22.661 0 0 0 
754 4 3.506 38.458 7.539 0 0 0 
755 4 6.01 25.834 22.646 0 0 0 
756 4 0.55 39.439 11.248 0 0 0 
757 4 3.054 26.815 26.355 0 0 0 
758 4 3.722 32.668 7.554 0 0 0 
759 4 6.226 20.044 22.661 0 0 0 
760 4 6.181 34.696 11.316 0 0 0 
761 4 8.686 22.073 26.423 0 0 0 
762 4 6.337 33.501 7.614 0 0 0 
763 4 8.842 20.877 22.722 0 0 0 
764 4 3.338 34.516 11.27 0 0 0 
765 4 5.843 21.892 26.378 0 0 0 
766 4 2.367 36.925 11.285 0 0 0 
767 4 4.872 24.302 26.393 0 0 0 
768 4 1.881 0.646 7.622 0 0 0 
769 4 4.386 27.73 22.729 0 0 0 
770 4 4.64 35.287 7.675 0 0 0 
771 4 7.144 22.663 22.782 0 0 0 
772 4 5.256 31.93 11.323 0 0 0 
773 4 7.76 19.307 26.431 0 0 0 
774 4 6.608 33.414 13.468 0 0 0 
775 4 5.205 33.871 13.574 0 0 0 
776 4 3.148 34.224 5.454 0 0 0 
777 4 5.653 21.6 20.561 0 0 0 
778 4 4.483 33.716 5.325 0 0 0 
779 4 6.988 21.092 20.433 0 0 0 
780 4 8.647 32.284 12.789 0 0 0 
781 4 7.629 31.336 12.819 0 0 0 
782 4 5.471 30.659 13.106 0 0 0 
783 4 4.039 30.454 13.423 0 0 0 
784 4 2.539 35.452 13.227 0 0 0 
785 4 4.025 35.666 13.03 0 0 0 
786 2 10.705 30.527 8.871 0 0 0 
787 2 13.209 17.904 23.979 0 0 0 
788 2 10.683 37.168 10.047 0 0 0 
789 2 13.188 24.544 25.155 0 0 0 
790 2 7.804 35.465 8.915 0 0 0 
791 2 10.309 22.842 24.022 0 0 0 
792 1 13.544 32.164 10.012 0 0 0 
793 2 16.048 19.541 25.12 0 0 0 
794 2 7.812 38.791 9.435 0 0 0 
795 2 10.317 26.168 24.542 0 0 0 
796 2 10.666 33.826 9.507 0 0 0 
797 2 13.17 21.202 24.615 0 0 0 
798 3 8.868 0.34 10.437 0 0 0 
799 3 11.372 27.425 25.545 0 0 0 
800 3 6.767 37.519 8.456 0 0 0 
801 3 9.271 24.895 23.563 0 0 0 
802 3 9.418 38.528 8.453 0 0 0 
803 3 11.922 25.904 23.56 0 0 0 
804 3 6.221 39.088 10.443 0 0 0 
805 3 8.725 26.465 25.551 0 0 0 
806 3 9.637 32.581 8.459 0 0 0 
807 3 12.141 19.957 23.567 0 0 0 
808 3 11.695 35.084 10.526 0 0 0 
809 3 14.2 22.46 25.634 0 0 0 
810 3 12.267 33.535 8.53 0 0 0 
811 3 14.772 20.911 23.637 0 0 0 
812 3 9.058 34.069 10.485 0 0 0 
813 3 11.562 21.445 25.593 0 0 0 
814 3 8.373 37.271 10.463 0 0 0 
815 3 10.878 24.648 25.57 0 0 0 
816 3 7.243 0.589 8.433 0 0 0 
817 3 9.748 27.674 23.541 0 0 0 
818 3 10.118 35.349 8.494 0 0 0 
819 3 12.623 22.726 23.602 0 0 0 
820 3 11.24 32.288 10.499 0 0 0 
821 3 13.744 19.665 25.607 0 0 0 
822 3 11.948 34.101 13.879 0 0 0 
823 3 9.428 33.606 5.01 0 0 0 
824 3 11.933 20.983 20.118 0 0 0 
825 3 13.589 32.204 12.565 0 0 0 
826 3 10.43 31.169 13.282 0 0 0 
827 3 9.146 35.052 13.233 0 0 0 
828 4 13.522 35.317 6.405 0 0 0 
829 4 16.026 22.694 21.512 0 0 0 
830 4 11.947 33.903 5.693 0 0 0 
831 3 12.335 35.107 5.922 0 0 0 
832 3 14.84 22.483 21.03 0 0 0 
833 4 9.151 0.003 11.195 0 0 0 
834 4 11.656 27.088 26.302 0 0 0 
835 4 6.585 37.572 7.554 0 0 0 
836 4 9.09 24.948 22.661 0 0 0 
837 4 9.28 38.458 7.539 0 0 0 
838 4 11.785 25.834 22.646 0 0 0 
839 4 6.325 39.439 11.248 0 0 0 
840 4 8.829 26.815 26.355 0 0 0 
841 4 9.497 32.668 7.554 0 0 0 
842 4 12.001 20.044 22.661 0 0 0 
843 4 11.956 34.696 11.316 0 0 0 
844 4 14.46 22.073 26.423 0 0 0 
845 4 12.112 33.501 7.614 0 0 0 
846 4 14.616 20.877 22.722 0 0 0 
847 4 9.113 34.516 11.27 0 0 0 
848 4 11.617 21.892 26.378 0 0 0 
849 4 8.142 36.925 11.285 0 0 0 
850 4 10.646 24.302 26.393 0 0 0 
851 4 7.656 0.646 7.622 0 0 0 
852 4 10.16 27.73 22.729 0 0 0 
853 4 10.414 35.287 7.675 0 0 0 
854 4 12.919 22.663 22.782 0 0 0 
855 4 11.03 31.93 11.323 0 0 0 
856 4 13.535 19.307 26.431 0 0 0 
857 4 12.383 33.414 13.468 0 0 0 
858 4 10.98 33.871 13.574 0 0 0 
859 4 8.923 34.224 5.454 0 0 0 
860 4 11.428 21.6 20.561 0 0 0 
861 4 10.258 33.716 5.325 0 0 0 
862 4 12.763 21.092 20.433 0 0 0 
863 4 14.422 32.284 12.789 0 0 0 
864 4 13.404 31.336 12.819 0 0 0 
865 4 11.245 30.659 13.106 0 0 0 
866 4 9.814 30.454 13.423 0 0 0 
867 4 8.314 35.452 13.227 0 0 0 
868 4 9.8 35.666 13.03 0 0 0 
869 2 1.67 27.831 23.979 0 0 0 
870 2 16.45 0.746 8.871 0 0 0 
871 2 1.648 34.471 25.155 0 0 0 
872 2 16.429 7.387 10.047 0 0 0 
873 1 13.55 5.684 8.915 0 0 0 
874 2 16.093 32.769 24.022 0 0 0 
875 2 1.965 2.383 10.012 0 0 0 
876 2 4.509 29.468 25.12 0 0 0 
877 2 13.558 9.01 9.435 0 0 0 
878 2 16.101 36.095 24.542 0 0 0 
879 2 1.631 31.13 24.615 0 0 0 
880 2 16.411 4.045 9.507 0 0 0 
881 3 14.613 10.267 10.437 0 0 0 
882 3 17.157 37.352 25.545 0 0 0 
883 3 12.512 7.738 8.456 0 0 0 
884 3 15.055 34.822 23.563 0 0 0 
885 3 15.163 8.747 8.453 0 0 0 
886 3 0.383 35.831 23.56 0 0 0 
887 3 11.966 9.307 10.443 0 0 0 
888 3 14.51 36.392 25.551 0 0 0 
889 3 0.602 29.884 23.567 0 0 0 
890 3 15.382 2.8 8.459 0 0 0 
891 3 2.66 32.387 25.634 0 0 0 
892 3 0.117 5.303 10.526 0 0 0 
893 3 3.232 30.838 23.637 0 0 0 
894 3 0.689 3.754 8.53 0 0 0 
895 3 0.023 31.372 25.593 0 0 0 
896 3 14.803 4.288 10.485 0 0 0 
897 3 14.119 7.49 10.463 0 0 0 
898 3 16.662 34.575 25.57 0 0 0 
899 3 12.988 10.516 8.433 0 0 0 
900 3 15.532 37.601 23.541 0 0 0 
901 3 1.083 32.653 23.602 0 0 0 
902 3 15.864 5.568 8.494 0 0 0 
903 3 2.205 29.592 25.607 0 0 0 
904 3 16.985 2.507 10.499 0 0 0 
905 3 0.369 4.32 13.879 0 0 0 
906 3 0.393 30.91 20.118 0 0 0 
907 3 15.174 3.825 5.01 0 0 0 
908 3 2.01 2.423 12.565 0 0 0 
909 3 16.175 1.388 13.282 0 0 0 
910 3 14.892 5.271 13.233 0 0 0 
911 3 2.517 33.399 20.788 0 0 0 
912 4 1.943 5.536 6.405 0 0 0 
913 3 4.486 32.621 21.512 0 0 0 
914 4 0.368 4.122 5.693 0 0 0 