ITEM: TIMESTEP
252
ITEM: NUMBER OF ATOMS
1737
ITEM: BOX BOUNDS pp pp pp
0 17.324
0 39.708
0 33.947
ITEM: ATOMS id type x y z vx vy vz 
1 1 1.62176 7.95945 24.612 0 0 0 
2 2 16.4658 20.545 8.72422 0 0 0 
3 2 1.69016 14.5855 24.98 0 0 0 
4 2 16.5168 27.2384 10.0898 0 0 0 
5 2 13.5678 25.5297 9.02735 0 0 0 
6 2 16.0648 12.9191 24.1729 0 0 0 
7 2 2.02587 22.1948 10.1201 0 0 0 
8 2 4.52581 9.56975 25.0673 0 0 0 
9 2 13.6142 28.8513 9.47164 0 0 0 
10 2 16.0643 16.1848 24.6358 0 0 0 
11 2 1.64179 11.22 24.5802 0 0 0 
12 2 16.4207 23.8271 9.58408 0 0 0 
13 3 14.8611 30.2539 10.5996 0 0 0 
14 3 17.294 17.8116 25.7807 0 0 0 
15 3 12.3761 27.2797 8.2184 0 0 0 
16 3 14.6256 14.5694 23.3012 0 0 0 
17 3 15.423 28.4905 8.25226 0 0 0 
18 3 0.564024 15.9418 23.34 0 0 0 
19 3 11.7632 29.1893 10.5496 0 0 0 
20 3 13.9303 16.005 25.5498 0 0 0 
21 3 0.559077 9.36824 23.7593 0 0 0 
22 3 15.2006 22.4271 8.25409 0 0 0 
23 3 2.79138 12.8332 25.8331 0 0 0 
24 3 0.258172 25.3008 10.8059 0 0 0 
25 3 3.55644 11.0204 23.6699 0 0 0 
26 3 1.00109 23.6963 8.35067 0 0 0 
27 3 16.8008 10.9854 25.6161 0 0 0 
28 3 14.5683 24.0589 10.6923 0 0 0 
29 3 14.2482 27.1009 10.7071 0 0 0 
30 3 16.8908 14.4624 25.8825 0 0 0 
31 3 12.9533 30.6087 8.28917 0 0 0 
32 3 15.4316 17.8348 23.397 0 0 0 
33 3 0.768904 12.9012 23.4408 0 0 0 
34 3 15.7813 25.5971 8.32079 0 0 0 
35 3 2.26383 9.20335 25.9451 0 0 0 
36 3 17.1301 22.0626 10.6175 0 0 0 
37 3 0.42749 24.3811 13.7177 0 0 0 
38 3 0.146347 11.1808 20.0811 0 0 0 
39 3 15.1966 23.7865 5.08481 0 0 0 
40 3 2.06111 22.2458 12.6891 0 0 0 
41 3 16.0516 21.2849 13.2296 0 0 0 
42 3 14.9 25.0288 13.207 0 0 0 
43 4 0.0836392 25.8502 5.6548 0 0 0 
44 3 2.31156 13.5062 20.8278 0 0 0 
45 4 1.45623 25.5225 6.04877 0 0 0 
46 3 4.44734 12.7329 21.3535 0 0 0 
47 3 2.73625 11.1991 20.8553 0 0 0 
48 3 0.581501 25.1443 6.05132 0 0 0 
49 5 3.16892 12.4702 21.0027 0 0 0 
50 4 15.2332 30.4134 11.4581 0 0 0 
51 4 0.461035 17.5157 26.5217 0 0 0 
52 4 12.1974 27.5264 7.323 0 0 0 
53 4 14.1324 15.2044 22.7787 0 0 0 
54 4 15.3199 28.1823 7.33929 0 0 0 
55 4 0.427627 15.6621 22.4264 0 0 0 
56 4 11.6245 29.4905 11.4278 0 0 0 
57 4 13.5128 15.7315 26.352 0 0 0 
58 4 0.298786 8.81248 23.0238 0 0 0 
59 4 14.9179 22.3737 7.35424 0 0 0 
60 4 3.17468 12.5612 26.6439 0 0 0 
61 4 0.383742 25.1848 11.7339 0 0 0 
62 4 3.57595 10.8368 22.7469 0 0 0 
63 4 0.868969 23.8291 7.41536 0 0 0 
64 4 16.3455 10.6313 26.3683 0 0 0 
65 4 14.6221 24.3634 11.6075 0 0 0 
66 4 14.0632 26.7922 11.572 0 0 0 
67 4 16.4746 14.2388 26.6921 0 0 0 
68 4 13.2594 30.8883 7.42617 0 0 0 
69 4 15.6846 18.0646 22.5106 0 0 0 
70 4 1.08282 13.0791 22.5742 0 0 0 
71 4 16.3322 25.6711 7.55683 0 0 0 
72 4 1.38016 9.16086 26.3462 0 0 0 
73 4 16.8 21.8285 11.4707 0 0 0 
74 4 0.884622 23.6156 13.307 0 0 0 
75 4 16.8243 24.2692 13.4372 0 0 0 
76 4 16.9151 11.8071 20.5731 0 0 0 
77 4 14.5714 24.4215 5.43467 0 0 0 
78 4 1.08933 11.2876 20.4771 0 0 0 
79 4 16.0427 24.104 5.40624 0 0 0 
80 4 2.97577 22.456 12.9751 0 0 0 
81 4 1.86294 21.3483 13.1133 0 0 0 
82 4 16.9312 20.8603 13.1084 0 0 0 
83 4 15.4856 20.5662 13.5282 0 0 0 
84 4 13.977 25.2937 13.3305 0 0 0 
85 4 15.3547 25.862 13.0141 0 0 0 
86 2 4.98787 20.5484 8.78974 0 0 0 
87 2 7.44737 7.94549 23.878 0 0 0 
88 2 4.88176 27.1858 10.1302 0 0 0 
89 2 7.48085 14.5633 25.0147 0 0 0 
90 2 1.99337 25.5146 9.0874 0 0 0 
91 2 4.59043 12.8495 24.035 0 0 0 
92 2 7.84683 22.0608 10.2423 0 0 0 
93 1 10.3601 9.59669 24.6226 0 0 0 
94 2 2.08715 28.8623 9.24441 0 0 0 
95 2 4.59582 16.2465 24.4023 0 0 0 
96 2 4.90927 23.85 9.44714 0 0 0 
97 2 7.48134 11.2196 24.7083 0 0 0 
98 3 3.51345 30.26 10.6767 0 0 0 
99 3 5.98711 17.7439 25.8622 0 0 0 
100 3 0.88896 27.3286 8.21125 0 0 0 
101 3 3.4978 14.7031 23.3829 0 0 0 
102 3 4.25474 29.0254 8.42397 0 0 0 
103 3 6.73474 16.4349 23.5684 0 0 0 
104 3 0.305696 29.2144 10.5354 0 0 0 
105 3 2.6381 16.5294 25.7321 0 0 0 
106 3 3.71674 22.4196 8.28167 0 0 0 
107 3 6.3164 9.79564 23.3962 0 0 0 
108 3 6.36171 25.4085 10.5948 0 0 0 
109 3 8.60364 12.8538 25.8971 0 0 0 
110 3 6.98559 23.8117 8.69234 0 0 0 
111 3 9.55528 10.8129 23.3594 0 0 0 
112 3 3.14811 24.1682 10.6724 0 0 0 
113 3 5.55025 11.4388 25.9027 0 0 0 
114 3 2.69658 27.2044 10.614 0 0 0 
115 3 5.36751 14.4873 25.7514 0 0 0 
116 3 1.38089 30.6283 8.22244 0 0 0 
117 3 3.82817 17.9894 23.3783 0 0 0 
118 3 4.06246 25.7263 8.24249 0 0 0 
119 3 6.78685 12.9809 23.3791 0 0 0 
120 3 5.57141 22.1136 10.6533 0 0 0 
121 3 8.71119 9.4697 25.5912 0 0 0 
122 3 6.13583 24.1395 13.8253 0 0 0 
123 3 3.55157 23.7097 4.81906 0 0 0 
124 3 6.48875 11.0683 20.2174 0 0 0 
125 3 7.71787 21.7934 12.8162 0 0 0 
126 3 4.62722 21.4852 13.3468 0 0 0 
127 3 3.42842 24.8612 13.2656 0 0 0 
128 3 5.92821 26.1561 5.5143 0 0 0 
129 3 7.74465 25.2602 6.69905 0 0 0 
130 4 9.73873 12.7011 21.5961 0 0 0 
131 3 5.98418 23.8694 5.95717 0 0 0 
132 4 9.00235 11.7474 20.7785 0 0 0 
133 5 6.55183 25.0866 6.0453 0 0 0 
134 3 9.12378 12.6868 20.8697 0 0 0 
135 4 4.09424 29.7019 11.1969 0 0 0 
136 4 6.51283 17.1242 26.3727 0 0 0 
137 4 0.605491 27.5425 7.3377 0 0 0 
138 4 3.25817 14.5824 22.4807 0 0 0 
139 4 4.52622 29.4188 7.57102 0 0 0 
140 4 7.01241 16.8465 22.7268 0 0 0 
141 4 0.0832397 29.5351 11.3912 0 0 0 
142 4 2.67143 16.9089 26.5886 0 0 0 
143 4 3.38287 22.3062 7.40415 0 0 0 
144 4 6.18698 9.79851 22.4615 0 0 0 
145 4 6.91256 24.7719 11.069 0 0 0 
146 4 8.95394 12.5633 26.7162 0 0 0 
147 4 7.27912 23.8663 7.77573 0 0 0 
148 4 9.33313 10.0618 22.8099 0 0 0 
149 4 3.14229 24.3375 11.6287 0 0 0 
150 4 5.50192 11.9992 26.6521 0 0 0 
151 4 2.67666 26.972 11.523 0 0 0 
152 4 4.88847 14.2455 26.5205 0 0 0 
153 4 1.67307 30.9225 7.35552 0 0 0 
154 4 4.12715 18.1702 22.495 0 0 0 
155 4 4.54481 25.8722 7.44677 0 0 0 
156 4 7.14772 13.0506 22.5127 0 0 0 
157 4 5.23838 21.8616 11.5029 0 0 0 
158 4 9.13685 9.09617 26.3477 0 0 0 
159 4 6.58798 23.4194 13.3542 0 0 0 
160 4 5.23941 24.1286 13.4406 0 0 0 
161 4 3.09578 24.3868 5.32772 0 0 0 
162 4 5.73618 11.4599 20.7046 0 0 0 
163 4 4.51802 23.733 5.14775 0 0 0 
164 4 7.23839 11.5852 20.5463 0 0 0 
165 4 8.60375 22.1175 13.0672 0 0 0 
166 4 7.81931 20.8239 12.9068 0 0 0 
167 4 5.57366 21.2736 13.3765 0 0 0 
168 4 4.17957 20.6217 13.4772 0 0 0 
169 4 2.51379 24.9965 13.5582 0 0 0 
170 4 3.77279 25.7612 13.1181 0 0 0 
171 2 10.678 20.5279 8.75401 0 0 0 
172 2 13.2233 7.99275 23.888 0 0 0 
173 2 10.6844 27.2663 10.0941 0 0 0 
174 1 13.1789 14.5408 24.5699 0 0 0 
175 1 7.76373 25.4808 9.23914 0 0 0 
176 2 10.3668 12.8583 24.1826 0 0 0 
177 2 13.4732 22.2462 10.0851 0 0 0 
178 1 16.0779 9.68762 24.441 0 0 0 
179 2 7.79461 28.8215 9.2622 0 0 0 
180 2 10.3317 16.2283 24.4894 0 0 0 
181 2 10.5994 23.8604 9.43414 0 0 0 
182 2 13.2497 11.2308 24.8748 0 0 0 
183 3 8.96039 30.232 10.5145 0 0 0 
184 3 11.481 17.7605 25.6746 0 0 0 
185 3 6.77923 26.9632 8.49922 0 0 0 
186 3 9.31848 14.6308 23.3498 0 0 0 
187 3 9.68592 28.6166 8.23921 0 0 0 
188 3 12.415 15.7477 23.2921 0 0 0 
189 3 5.81094 29.3036 10.611 0 0 0 
190 3 8.25031 16.6252 25.8632 0 0 0 
191 3 9.42388 22.3143 8.26398 0 0 0 
192 3 11.8644 9.87047 23.4672 0 0 0 
193 3 11.7637 25.2791 10.7067 0 0 0 
194 3 14.0472 13.2442 25.6714 0 0 0 
195 3 12.465 23.7278 8.27168 0 0 0 
196 3 15.2431 10.9166 23.2787 0 0 0 
197 3 8.56315 24.3317 10.6055 0 0 0 
198 3 11.0335 10.9799 25.7489 0 0 0 
199 3 8.37479 26.802 10.5139 0 0 0 
200 3 11.5872 14.491 25.6215 0 0 0 
201 3 6.56972 30.6215 8.47179 0 0 0 
202 3 9.06534 17.9496 23.6127 0 0 0 
203 3 9.52816 25.6481 8.51617 0 0 0 
204 3 12.5829 13.1332 23.3955 0 0 0 
205 3 11.1559 22.1119 10.6368 0 0 0 
206 3 14.5796 9.45481 25.5801 0 0 0 
207 3 11.9512 24.3267 13.6985 0 0 0 
208 3 9.61298 23.6935 4.907 0 0 0 
209 3 12.0101 11.3056 20.1932 0 0 0 
210 3 13.4396 21.9601 12.6722 0 0 0 
211 3 10.5148 21.2417 13.2801 0 0 0 
212 3 9.14897 25.1282 13.2991 0 0 0 
213 4 11.7274 25.6649 5.80639 0 0 0 
214 4 14.1475 13.3043 21.2839 0 0 0 
215 4 15.4601 12.7513 21.5084 0 0 0 
216 4 12.2051 24.4102 5.21518 0 0 0 
217 3 12.4631 25.057 5.86722 0 0 0 
218 3 14.8776 12.9575 20.7823 0 0 0 
219 4 9.13205 30.1277 11.4375 0 0 0 
220 4 12.0143 17.3421 26.3227 0 0 0 
221 4 6.77814 26.6475 7.59921 0 0 0 
222 4 9.03464 14.8186 22.4703 0 0 0 
223 4 9.60187 28.3193 7.31651 0 0 0 
224 4 12.2341 15.0749 22.6211 0 0 0 
225 4 6.01172 30.0319 11.1964 0 0 0 
226 4 8.47562 17.3931 26.4052 0 0 0 
227 4 9.03705 22.1988 7.40427 0 0 0 
228 4 11.2685 10.1009 22.7582 0 0 0 
229 4 11.8903 25.2356 11.6417 0 0 0 
230 4 14.0083 13.8367 26.4065 0 0 0 
231 4 12.4612 23.9432 7.33398 0 0 0 
232 4 15.3016 10.3025 22.5544 0 0 0 
233 4 8.73318 25.0874 11.1711 0 0 0 
234 4 10.446 10.703 26.4367 0 0 0 
235 4 7.61435 26.5837 11.0666 0 0 0 
236 4 12.0487 14.1933 26.3927 0 0 0 
237 4 6.134 30.7702 7.63369 0 0 0 
238 4 8.62133 18.0652 22.7734 0 0 0 
239 4 9.1759 25.8939 7.65819 0 0 0 
240 4 13.3046 13.3549 22.8066 0 0 0 
241 4 11.0001 21.8543 11.541 0 0 0 
242 4 15.0694 9.04307 26.2787 0 0 0 
243 4 12.2822 23.5055 13.292 0 0 0 
244 4 11.0047 24.3114 13.4715 0 0 0 
245 4 8.87001 24.1561 5.288 0 0 0 
246 4 11.4392 11.9045 20.685 0 0 0 
247 4 10.312 23.931 5.51048 0 0 0 
248 4 12.8719 11.5335 20.5627 0 0 0 
249 4 14.2796 22.3872 12.9122 0 0 0 
250 4 13.6744 21.0385 12.8192 0 0 0 
251 4 11.3245 20.7326 13.2633 0 0 0 
252 4 9.84974 20.5488 13.2392 0 0 0 
253 4 8.32804 25.6468 13.2739 0 0 0 
254 4 9.82716 25.7762 13.0647 0 0 0 
255 2 0.441152 24.2081 16.2884 0 0 0 
256 1 0.358403 30.7783 16.9214 0 0 0 
257 2 14.8037 29.1212 16.2795 0 0 0 
258 2 3.21083 25.7858 17.6452 0 0 0 
259 2 14.8561 32.4161 17.2583 0 0 0 
260 2 0.312672 27.5207 17.1019 0 0 0 
261 3 16.0762 33.9378 18.2315 0 0 0 
262 3 13.4051 31.0948 15.7909 0 0 0 
263 3 16.811 31.9748 15.7096 0 0 0 
264 3 12.6687 32.2472 18.0138 0 0 0 
265 3 16.4681 26.0904 15.812 0 0 0 
266 3 1.22759 29.4526 17.9735 0 0 0 
267 3 2.20345 27.3074 15.8925 0 0 0 
268 3 15.6842 27.733 18.1567 0 0 0 
269 3 16.0612 30.6097 17.898 0 0 0 
270 3 14.1853 34.1213 15.9645 0 0 0 
271 3 17.136 29.4798 15.6168 0 0 0 
272 3 0.992415 25.7799 18.1838 0 0 0 
273 3 1.54526 27.7873 21.3844 0 0 0 
274 3 16.5034 0.768167 6.17338 0 0 0 
275 3 16.6021 27.4694 12.6335 0 0 0 
276 3 0.66031 38.5263 5.04842 0 0 0 
277 3 3.18221 25.5663 20.2312 0 0 0 
278 3 0.143918 24.7463 20.7796 0 0 0 
279 3 14.7435 37.5674 5.72486 0 0 0 
280 3 13.8774 1.57038 5.73594 0 0 0 
281 3 16.1137 28.5689 20.7028 0 0 0 
282 4 1.37646 29.3278 13.3557 0 0 0 
283 4 2.03433 28.1542 12.7714 0 0 0 
284 3 2.07273 28.7045 13.552 0 0 0 
285 4 16.5073 34.0889 19.0728 0 0 0 
286 4 12.8202 31.5709 15.2066 0 0 0 
287 4 16.7142 31.2816 15.0589 0 0 0 
288 4 12.331 31.878 18.8492 0 0 0 
289 4 16.2816 26.0068 14.8914 0 0 0 
290 4 1.07983 29.9352 18.782 0 0 0 
291 4 2.13898 27.5312 14.9605 0 0 0 
292 4 15.7651 28.0665 19.0615 0 0 0 
293 4 16.5345 30.4735 18.7157 0 0 0 
294 4 14.4573 34.3474 15.0846 0 0 0 
295 4 0.663781 29.5777 15.1842 0 0 0 
296 4 0.757026 25.4613 19.0439 0 0 0 
297 4 2.00662 27.0964 20.8777 0 0 0 
298 4 16.9277 0.0220775 5.63686 0 0 0 
299 4 0.662606 27.8105 20.9784 0 0 0 
300 4 15.5749 0.84258 5.83691 0 0 0 
301 4 15.8237 27.9905 12.9688 0 0 0 
302 4 0.0334099 27.6891 13.219 0 0 0 
303 4 1.61593 38.6214 5.21945 0 0 0 
304 4 4.0357 25.9785 20.4816 0 0 0 
305 4 0.432127 37.5696 5.27239 0 0 0 
306 4 3.37402 24.5974 20.2826 0 0 0 
307 4 0.986255 24.2889 20.7376 0 0 0 
308 4 15.5597 37.2183 5.34855 0 0 0 
309 4 16.8802 24.0497 21.0853 0 0 0 
310 4 14.2157 36.7766 5.83603 0 0 0 
311 4 12.9149 1.59037 5.70163 0 0 0 
312 4 15.1879 28.8073 20.869 0 0 0 
313 4 14.1743 2.39466 5.31063 0 0 0 
314 4 16.5675 29.4264 20.5923 0 0 0 
315 2 6.14598 24.1535 16.3892 0 0 0 
316 2 6.16868 30.83 17.6814 0 0 0 
317 2 3.28498 29.1309 16.5841 0 0 0 
318 1 9.06465 25.8426 17.0486 0 0 0 
319 2 3.23106 32.4481 17.1729 0 0 0 
320 2 6.16834 27.4587 17.2239 0 0 0 
321 3 4.25927 34.3525 17.9901 0 0 0 
322 3 1.85588 30.915 15.7185 0 0 0 
323 3 5.09053 32.1926 15.8825 0 0 0 
324 3 1.07456 32.2367 17.8906 0 0 0 
325 3 5.01879 26.0022 15.9524 0 0 0 
326 3 7.40148 28.9936 18.2325 0 0 0 
327 3 8.15751 27.0154 15.8552 0 0 0 
328 3 4.23462 27.6642 18.2964 0 0 0 
329 3 4.03151 30.7413 18.2085 0 0 0 
330 3 2.69719 34.389 15.8411 0 0 0 
331 3 5.36875 29.1946 15.9521 0 0 0 
332 3 7.42701 25.6705 18.0246 0 0 0 
333 3 4.88128 0.6487 6.25485 0 0 0 
334 3 7.42639 27.9166 21.28 0 0 0 
335 3 4.68286 27.3956 12.6874 0 0 0 
336 3 6.33222 38.1606 5.27048 0 0 0 
337 3 9.11887 25.8168 20.3078 0 0 0 
338 3 3.22458 37.802 5.80781 0 0 0 
339 3 5.77772 25.0703 20.8432 0 0 0 
340 3 2.3498 1.57444 5.86199 0 0 0 
341 3 4.59702 28.6183 20.7982 0 0 0 
342 3 6.82911 29.7094 13.2848 0 0 0 
343 3 9.02941 28.9973 13.575 0 0 0 
344 3 7.31437 27.4177 13.2455 0 0 0 
345 5 7.72473 28.6954 13.3682 0 0 0 
346 4 4.13541 34.7485 18.8526 0 0 0 
347 4 1.32286 31.4596 15.1439 0 0 0 
348 4 4.96353 31.8536 14.9813 0 0 0 
349 4 0.754832 31.8955 18.7379 0 0 0 
350 4 4.79892 26.0414 15.0347 0 0 0 
351 4 7.55017 28.9349 19.164 0 0 0 
352 4 7.97725 26.3085 15.2389 0 0 0 
353 4 4.24812 27.9604 19.2181 0 0 0 
354 4 3.73786 30.5874 19.0859 0 0 0 
355 4 3.32143 34.6723 15.165 0 0 0 
356 4 5.69237 29.3889 15.0939 0 0 0 
357 4 7.88149 25.5413 18.8551 0 0 0 
358 4 5.33385 39.6629 5.72082 0 0 0 
359 4 7.93003 27.1695 20.8921 0 0 0 
360 4 3.97339 0.723534 5.87031 0 0 0 
361 4 6.50636 27.7306 21.0245 0 0 0 
362 4 4.15917 28.0527 13.1787 0 0 0 
363 4 5.65715 27.5474 12.9872 0 0 0 
364 4 7.20718 38.576 5.27138 0 0 0 
365 4 10.0331 26.0247 20.5826 0 0 0 
366 4 6.58473 37.2619 5.07922 0 0 0 
367 4 8.92843 24.9055 20.7007 0 0 0 
368 4 4.15667 37.6957 5.56725 0 0 0 
369 4 6.59871 24.6469 20.5352 0 0 0 
370 4 2.87871 36.894 5.86573 0 0 0 
371 4 5.18371 24.3191 20.9697 0 0 0 
372 4 1.39664 1.47242 5.72602 0 0 0 
373 4 3.80067 29.1671 20.9113 0 0 0 
374 4 2.62377 2.40491 5.36893 0 0 0 
375 4 5.27446 29.2868 20.6099 0 0 0 
376 2 11.9734 24.2917 16.2744 0 0 0 
377 1 11.9566 30.8029 17.0013 0 0 0 
378 2 9.07262 29.1174 16.3336 0 0 0 
379 2 14.7861 25.8136 17.6592 0 0 0 
380 2 9.08414 32.4197 17.1263 0 0 0 
381 2 11.9116 27.5424 17.3057 0 0 0 
382 3 10.2602 33.9262 18.1608 0 0 0 
383 3 7.93938 30.9356 15.915 0 0 0 
384 3 11.0687 32.0004 15.7904 0 0 0 
385 3 7.19674 32.7621 18.1599 0 0 0 
386 3 10.5023 26.1518 15.8204 0 0 0 
387 3 12.9024 29.4984 18.0117 0 0 0 
388 3 13.6508 27.2203 15.8941 0 0 0 
389 3 9.76782 27.3371 18.0025 0 0 0 
390 3 10.3395 30.5795 17.9706 0 0 0 
391 3 8.41268 34.1417 15.8478 0 0 0 
392 3 11.4582 29.4314 15.7703 0 0 0 
393 3 12.6374 25.7734 18.1942 0 0 0 
394 3 10.7429 0.662074 6.20118 0 0 0 
395 3 13.2427 27.8646 21.3511 0 0 0 
396 3 11.0628 27.3224 12.6473 0 0 0 
397 3 12.0458 38.176 5.08865 0 0 0 
398 3 14.7449 25.4109 20.2353 0 0 0 
399 3 9.00373 37.5415 5.60248 0 0 0 
400 3 11.7612 25.0812 20.8374 0 0 0 
401 3 7.94156 1.58262 5.68469 0 0 0 
402 3 10.4219 28.532 20.8137 0 0 0 
403 4 14.7283 28.4974 13.5852 0 0 0 
404 3 14.0642 28.94 14.1004 0 0 0 
405 4 10.7562 33.9212 18.9595 0 0 0 
406 4 7.64659 30.9205 15.0193 0 0 0 
407 4 10.9657 31.3547 15.0862 0 0 0 
408 4 7.21085 32.9902 19.0697 0 0 0 
409 4 9.88932 26.5125 15.186 0 0 0 
410 4 12.7429 29.9557 18.8322 0 0 0 
411 4 13.6552 27.5921 14.9633 0 0 0 
412 4 9.41091 27.0559 18.8418 0 0 0 
413 4 10.7974 30.5809 18.8046 0 0 0 
414 4 8.71873 34.3817 14.9814 0 0 0 
415 4 12.2564 29.5951 15.2648 0 0 0 
416 4 12.3035 25.4775 19.0272 0 0 0 
417 4 11.1348 39.6376 5.67313 0 0 0 
418 4 13.6202 27.0947 20.8941 0 0 0 
419 4 9.83282 0.736667 5.86917 0 0 0 
420 4 12.314 27.8437 21.0573 0 0 0 
421 4 10.3294 27.7649 13.1385 0 0 0 
422 4 11.8392 27.5341 13.1884 0 0 0 
423 4 12.9553 38.492 5.15176 0 0 0 
424 4 15.6049 25.783 20.4881 0 0 0 
425 4 12.1488 37.2719 5.38649 0 0 0 
426 4 14.8373 24.5101 20.5879 0 0 0 
427 4 9.94818 37.5032 5.46704 0 0 0 
428 4 12.6686 24.7603 20.7431 0 0 0 
429 4 8.76874 36.6275 5.6823 0 0 0 
430 4 11.2517 24.276 21.0466 0 0 0 
431 4 7.10954 2.06923 5.60198 0 0 0 
432 4 9.48589 28.7154 20.686 0 0 0 
433 4 8.60222 2.2374 5.39482 0 0 0 
434 4 10.8352 29.3857 20.651 0 0 0 
435 2 0.440953 14.2632 16.2812 0 0 0 
436 2 0.459733 20.9657 17.6878 0 0 0 
437 2 14.8418 19.1986 16.6839 0 0 0 
438 2 3.32955 15.91 17.6993 0 0 0 
439 2 14.8617 22.5291 16.9758 0 0 0 
440 2 0.418442 17.5506 17.1153 0 0 0 
441 3 16.1466 23.9118 18.1596 0 0 0 
442 3 13.6739 20.9211 15.7578 0 0 0 
443 3 16.7215 22.2085 15.7684 0 0 0 
444 3 12.9445 22.881 18.098 0 0 0 
445 3 16.528 16.1345 15.7885 0 0 0 
446 3 1.62476 19.0194 18.3149 0 0 0 
447 3 2.30228 17.3016 16.0398 0 0 0 
448 3 15.8826 17.7191 18.2394 0 0 0 
449 3 15.4929 20.8411 18.289 0 0 0 
450 3 14.1962 24.2207 15.8377 0 0 0 
451 3 16.9567 19.328 15.9667 0 0 0 
452 3 1.04638 15.7463 18.2144 0 0 0 
453 3 1.68684 18.028 21.2765 0 0 0 
454 3 16.3834 30.4522 6.20238 0 0 0 
455 3 16.1893 17.4753 12.6183 0 0 0 
456 3 0.552874 28.3514 5.11262 0 0 0 
457 3 3.31705 15.9311 20.2622 0 0 0 
458 3 17.2889 15.0135 20.8149 0 0 0 
459 3 14.8194 27.5335 5.76094 0 0 0 
460 3 13.7521 31.3073 5.71613 0 0 0 
461 3 16.1179 18.6436 20.7765 0 0 0 
462 3 1.08391 19.8208 13.25 0 0 0 
463 3 3.23691 19.0166 13.6669 0 0 0 
464 3 1.4746 17.5097 13.2727 0 0 0 
465 5 1.93336 18.7771 13.3949 0 0 0 
466 4 16.4983 24.072 19.0196 0 0 0 
467 4 13.4456 21.2429 14.902 0 0 0 
468 4 16.6022 21.9034 14.8646 0 0 0 
469 4 12.8675 23.1114 19.0044 0 0 0 
470 4 16.3186 16.1428 14.87 0 0 0 
471 4 1.76648 18.9128 19.242 0 0 0 
472 4 2.35967 17.072 15.1305 0 0 0 
473 4 15.8857 17.9938 19.1654 0 0 0 
474 4 15.363 20.7059 19.2079 0 0 0 
475 4 14.4904 24.4904 14.9787 0 0 0 
476 4 17.2813 19.5432 15.1136 0 0 0 
477 4 0.682092 15.4964 19.0506 0 0 0 
478 4 2.12704 17.2448 20.8806 0 0 0 
479 4 16.8583 29.7713 5.66147 0 0 0 
480 4 0.752482 17.9266 21.0202 0 0 0 
481 4 15.4936 30.5334 5.7929 0 0 0 
482 4 15.622 18.0577 13.1485 0 0 0 
483 4 17.1381 17.6096 12.9828 0 0 0 
484 4 1.45974 28.6894 5.15717 0 0 0 
485 4 4.24953 16.1307 20.5335 0 0 0 
486 4 0.716864 27.4155 5.14976 0 0 0 
487 4 3.12214 15.0241 20.6586 0 0 0 
488 4 0.819015 14.5479 20.6789 0 0 0 
489 4 15.6664 27.2856 5.3943 0 0 0 
490 4 16.6445 14.298 20.9242 0 0 0 
491 4 14.3726 26.691 5.85491 0 0 0 
492 4 12.8081 31.3104 5.50282 0 0 0 
493 4 15.221 18.9806 20.9034 0 0 0 
494 4 14.1161 32.166 5.36176 0 0 0 
495 4 16.6409 19.4556 20.7034 0 0 0 
496 2 6.15444 14.2929 16.2616 0 0 0 
497 2 6.11845 20.8433 17.6022 0 0 0 
498 2 3.28827 19.2226 16.4033 0 0 0 
499 2 8.96486 15.9051 17.6542 0 0 0 
500 1 3.29193 22.5307 16.8475 0 0 0 
501 1 6.16409 17.5737 17.1665 0 0 0 
502 3 4.25882 23.67 18.0475 0 0 0 
503 3 2.26559 21.2676 15.8774 0 0 0 
504 3 4.89784 22.2303 15.8859 0 0 0 
505 3 1.81824 22.8705 18.0162 0 0 0 
506 3 5.20303 16.4505 15.9608 0 0 0 
507 3 7.11912 18.8284 18.2081 0 0 0 
508 3 7.64315 17.4441 15.942 0 0 0 
509 3 4.56603 17.8837 18.1345 0 0 0 
510 3 3.76561 21.1095 18.038 0 0 0 
511 3 2.71395 24.0376 15.8469 0 0 0 
512 3 5.61651 18.9282 15.9206 0 0 0 
513 3 6.74298 16.0293 18.0832 0 0 0 
514 3 4.9025 30.4494 6.19473 0 0 0 
515 3 7.38944 17.7612 21.2693 0 0 0 
516 3 5.31015 17.3894 12.7224 0 0 0 
517 3 6.51115 28.7206 4.89474 0 0 0 
518 3 8.96609 15.5108 20.2445 0 0 0 
519 3 3.15597 27.6036 5.55616 0 0 0 
520 3 5.87218 15.2659 20.6223 0 0 0 
521 3 2.17066 31.3765 5.67194 0 0 0 
522 3 4.73261 18.5823 20.7228 0 0 0 
523 4 8.51043 19.0038 13.8627 0 0 0 
524 4 7.7972 17.9589 13.1509 0 0 0 
525 3 8.00596 18.8868 13.0616 0 0 0 
526 4 4.27244 23.0031 18.727 0 0 0 
527 4 2.15989 21.839 15.1263 0 0 0 
528 4 4.48725 22.0016 15.0299 0 0 0 
529 4 2.40366 23.103 18.7329 0 0 0 
530 4 5.08652 17.1918 15.3658 0 0 0 
531 4 7.20588 18.2464 18.9547 0 0 0 
532 4 7.08445 16.9893 15.3223 0 0 0 
533 4 4.98151 18.1381 18.972 0 0 0 
534 4 3.35136 21.5375 18.7806 0 0 0 
535 4 3.29033 23.907 15.0995 0 0 0 
536 4 6.41965 18.8104 15.4162 0 0 0 
537 4 6.1591 16.1055 18.8382 0 0 0 
538 4 5.44482 29.8113 5.61903 0 0 0 
539 4 7.83924 17.031 20.8084 0 0 0 
540 4 4.0253 30.4967 5.77128 0 0 0 
541 4 6.47544 17.7259 20.9298 0 0 0 
542 4 4.54115 17.7748 13.2018 0 0 0 
543 4 6.02879 18.0081 12.9315 0 0 0 
544 4 7.4372 28.8031 5.18485 0 0 0 
545 4 9.84895 15.8173 20.5213 0 0 0 
546 4 6.23941 27.7833 5.1648 0 0 0 
547 4 9.00342 14.5551 20.4606 0 0 0 
548 4 4.07276 27.3735 5.4305 0 0 0 
549 4 6.82367 15.1341 20.5931 0 0 0 
550 4 2.78237 26.7604 5.77449 0 0 0 
551 4 5.5426 14.4546 21.0265 0 0 0 
552 4 1.36441 31.899 5.52415 0 0 0 
553 4 3.77384 18.7039 20.6556 0 0 0 
554 4 2.88256 31.9945 5.42421 0 0 0 
555 4 5.09456 19.4857 20.6454 0 0 0 
556 2 11.9238 14.2558 16.2666 0 0 0 
557 2 11.9537 20.9182 17.6055 0 0 0 
558 2 9.01284 19.2113 16.5948 0 0 0 
559 2 14.7791 15.9028 17.5714 0 0 0 
560 2 9.0612 22.5588 17.0394 0 0 0 
561 2 11.8693 17.5465 17.069 0 0 0 
562 3 10.0226 24.4808 17.9545 0 0 0 
563 3 7.8495 20.9336 15.7452 0 0 0 
564 3 10.9014 22.3266 15.8318 0 0 0 
565 3 7.15409 22.7065 17.9993 0 0 0 
566 3 10.6285 16.2086 15.7842 0 0 0 
567 3 13.0268 18.9487 18.2855 0 0 0 
568 3 13.7754 17.4199 15.796 0 0 0 
569 3 9.99492 17.7729 18.2745 0 0 0 
570 3 9.79437 20.8354 18.165 0 0 0 
571 3 8.46218 24.5241 15.7882 0 0 0 
572 3 11.1572 19.3177 15.8173 0 0 0 
573 3 12.5279 15.7987 18.1537 0 0 0 
574 3 10.7629 30.5468 6.16431 0 0 0 
575 3 13.1403 17.9756 21.2889 0 0 0 
576 3 10.7298 17.4997 12.7182 0 0 0 
577 3 12.0953 28.1894 5.24334 0 0 0 
578 3 14.7263 15.7362 20.1489 0 0 0 
579 3 9.0824 27.7905 5.74813 0 0 0 
580 3 11.7157 14.7674 20.8227 0 0 0 
581 3 8.11358 31.4445 5.82686 0 0 0 
582 3 10.3472 18.7348 20.764 0 0 0 
583 4 12.8835 19.568 13.5602 0 0 0 
584 4 14.2945 19.2816 13.7659 0 0 0 
585 3 13.4977 18.8428 13.4821 0 0 0 
586 4 9.89666 24.8946 18.811 0 0 0 
587 4 7.64017 21.1927 14.8635 0 0 0 
588 4 10.8354 21.9655 14.9464 0 0 0 
589 4 7.14486 22.9295 18.9132 0 0 0 
590 4 10.4898 16.1947 14.8515 0 0 0 
591 4 13.1161 18.9409 19.2254 0 0 0 
592 4 13.6571 17.6097 14.8634 0 0 0 
593 4 10.0346 18.0711 19.2037 0 0 0 
594 4 9.55816 20.6832 19.06 0 0 0 
595 4 9.0145 24.8357 15.0418 0 0 0 
596 4 11.7251 19.4119 15.0735 0 0 0 
597 4 12.3191 15.5221 19.0357 0 0 0 
598 4 11.0674 29.7323 5.705 0 0 0 
599 4 13.5549 17.2054 20.8593 0 0 0 
600 4 9.82497 30.6528 5.87963 0 0 0 
601 4 12.2088 17.8911 21.0232 0 0 0 
602 4 10.1337 18.1487 13.1102 0 0 0 
603 4 11.5933 17.8021 13.0381 0 0 0 
604 4 12.9548 28.622 5.23519 0 0 0 
605 4 15.5658 16.147 20.4327 0 0 0 
606 4 12.3821 27.2799 5.25049 0 0 0 
607 4 14.8469 14.8004 20.4292 0 0 0 
608 4 9.9419 27.5469 5.38607 0 0 0 
609 4 12.4926 14.2467 20.6301 0 0 0 
610 4 8.63472 26.9447 5.87743 0 0 0 
611 4 11.0378 14.0982 20.9065 0 0 0 
612 4 7.17195 31.3982 5.63278 0 0 0 
613 4 9.55367 19.2733 20.9012 0 0 0 
614 4 8.44022 32.2159 5.32863 0 0 0 
615 4 11.0168 19.3973 20.5553 0 0 0 
616 2 1.62764 17.9046 23.8551 0 0 0 
617 2 16.4958 30.5307 8.73354 0 0 0 
618 2 1.6039 24.3892 24.8993 0 0 0 
619 2 16.5222 37.1919 10.0779 0 0 0 
620 2 13.5743 35.4992 9.16988 0 0 0 
621 2 16.0821 22.8467 23.8564 0 0 0 
622 2 1.99424 32.0956 10.1796 0 0 0 
623 2 4.48272 19.4927 25.0367 0 0 0 
624 2 13.5672 38.7664 9.5641 0 0 0 
625 2 16.1114 26.1374 24.5757 0 0 0 
626 1 1.66639 21.1827 24.5114 0 0 0 
627 2 16.4558 33.8167 9.5559 0 0 0 
628 3 14.81 0.500622 10.5681 0 0 0 
629 3 17.3236 27.6866 25.8019 0 0 0 
630 3 12.1626 37.2865 8.21671 0 0 0 
631 3 14.9892 24.752 23.3596 0 0 0 
632 3 15.3352 38.4379 8.24658 0 0 0 
633 3 0.611431 25.7515 23.3126 0 0 0 
634 3 11.5075 39.0741 10.6629 0 0 0 
635 3 14.1621 26.355 25.8002 0 0 0 
636 3 0.695664 20.0143 23.3908 0 0 0 
637 3 15.2247 32.3836 8.27525 0 0 0 
638 3 2.45283 22.414 25.7432 0 0 0 
639 3 0.337388 35.3117 10.7121 0 0 0 
640 3 3.25212 21.1078 23.4475 0 0 0 
641 3 1.08013 33.5383 8.4114 0 0 0 
642 3 0.112128 21.4006 25.6092 0 0 0 
643 3 14.5297 33.996 10.751 0 0 0 
644 3 14.2999 37.042 10.6822 0 0 0 
645 3 16.8679 24.2926 25.7439 0 0 0 
646 3 12.3083 0.731467 8.51983 0 0 0 
647 3 15.4416 27.8503 23.4021 0 0 0 
648 3 1.06147 22.4729 23.2419 0 0 0 
649 3 15.7459 35.5488 8.31486 0 0 0 
650 3 2.25659 19.7447 25.6213 0 0 0 
651 3 17.0872 32.0717 10.6332 0 0 0 
652 3 0.334242 34.1171 13.7327 0 0 0 
653 3 0.49455 21.1899 20.2632 0 0 0 
654 3 14.9453 33.638 4.86975 0 0 0 
655 3 1.92655 31.8314 12.7445 0 0 0 
656 3 16.2173 30.8816 13.0089 0 0 0 
657 3 14.8704 34.8858 13.2787 0 0 0 
658 3 17.1867 35.959 5.37227 0 0 0 
659 4 2.50045 23.1721 21.1433 0 0 0 
660 3 1.92142 35.2062 6.17349 0 0 0 
661 4 3.80015 22.6211 21.4173 0 0 0 
662 3 0.287929 33.6555 5.49942 0 0 0 
663 5 0.691875 34.934 5.67067 0 0 0 
664 3 3.23992 22.8019 20.6642 0 0 0 
665 4 15.2002 0.685436 11.4113 0 0 0 
666 4 0.417994 27.3582 26.5725 0 0 0 
667 4 11.6717 37.7295 7.53838 0 0 0 
668 4 14.7684 24.8008 22.4452 0 0 0 
669 4 15.2307 38.1384 7.32927 0 0 0 
670 4 0.525074 25.5536 22.3761 0 0 0 
671 4 11.4047 0.0117346 11.3546 0 0 0 
672 4 14.1771 26.9811 26.4955 0 0 0 
673 4 0.602629 20.7211 22.7432 0 0 0 
674 4 14.9398 32.2818 7.38104 0 0 0 
675 4 2.67271 21.674 26.3045 0 0 0 
676 4 0.544908 35.2242 11.6299 0 0 0 
677 4 2.73993 20.8156 22.7044 0 0 0 
678 4 1.1005 33.3828 7.4824 0 0 0 
679 4 0.608907 21.9693 26.1897 0 0 0 
680 4 14.6107 34.2838 11.6727 0 0 0 
681 4 14.2434 37.0771 11.6221 0 0 0 
682 4 16.4379 23.9881 26.5186 0 0 0 
683 4 11.8667 0.888068 7.67925 0 0 0 
684 4 15.6799 28.0363 22.5047 0 0 0 
685 4 1.90576 22.4544 22.8081 0 0 0 
686 4 16.0607 35.7722 7.45516 0 0 0 
687 4 1.47688 19.844 26.1561 0 0 0 
688 4 16.81 31.7507 11.4846 0 0 0 
689 4 0.749663 33.3524 13.2947 0 0 0 
690 4 16.7403 34.0919 13.4133 0 0 0 
691 4 17.1854 21.663 20.8175 0 0 0 
692 4 14.6581 34.4123 5.35815 0 0 0 
693 4 1.34534 21.5839 20.5241 0 0 0 
694 4 15.9424 33.6194 4.98577 0 0 0 
695 4 2.77244 32.2614 12.969 0 0 0 
696 4 2.05297 30.9903 13.2032 0 0 0 
697 4 17.0517 30.5468 13.3333 0 0 0 
698 4 15.5885 30.3512 13.5072 0 0 0 
699 4 13.9325 35.1217 13.3735 0 0 0 
700 4 15.3102 35.7312 13.06 0 0 0 
701 1 4.93003 30.4998 9.40777 0 0 0 
702 1 7.4459 17.862 24.6027 0 0 0 
703 2 4.90461 37.1469 10.1041 0 0 0 
704 2 7.4183 24.4557 24.9967 0 0 0 
705 2 2.04246 35.4555 8.85097 0 0 0 
706 2 4.5061 22.7852 24.2795 0 0 0 
707 2 7.80655 32.1521 10.0786 0 0 0 
708 2 10.3338 19.506 25.1099 0 0 0 
709 1 2.06051 38.7625 9.25922 0 0 0 
710 2 4.53387 26.1149 24.5839 0 0 0 
711 2 4.90276 33.7802 9.53685 0 0 0 
712 2 7.43362 21.1132 24.6175 0 0 0 
713 3 2.99792 0.209359 10.4666 0 0 0 
714 3 5.79302 27.7058 25.8176 0 0 0 
715 3 1.0089 37.5188 8.28716 0 0 0 
716 3 3.41497 24.4547 23.2554 0 0 0 
717 3 3.70061 38.5122 8.34342 0 0 0 
718 3 6.35082 25.8533 23.3655 0 0 0 
719 3 0.537425 39.0239 10.3854 0 0 0 
720 3 2.60343 26.2622 25.7281 0 0 0 
721 3 3.98045 31.8914 8.54516 0 0 0 
722 3 6.54967 19.237 23.6508 0 0 0 
723 3 6.08153 35.2633 10.7961 0 0 0 
724 3 8.57481 22.7611 25.8508 0 0 0 
725 3 6.80162 33.6771 8.31444 0 0 0 
726 3 9.34705 20.9451 23.6874 0 0 0 
727 3 3.07625 34.0777 10.6773 0 0 0 
728 3 5.49544 21.2636 25.8989 0 0 0 
729 3 2.59566 37.3529 10.434 0 0 0 
730 3 5.2907 24.3508 25.9386 0 0 0 
731 3 1.46391 0.577362 8.29789 0 0 0 
732 3 3.8433 27.8513 23.4206 0 0 0 
733 3 4.29214 35.4918 8.31509 0 0 0 
734 3 6.51423 22.7777 23.4258 0 0 0 
735 3 5.50057 31.7763 10.7267 0 0 0 
736 3 8.08209 19.0993 25.9586 0 0 0 
737 3 6.20074 34.2371 13.7178 0 0 0 
738 3 4.08941 33.4284 4.9207 0 0 0 
739 3 5.90468 21.1481 20.1462 0 0 0 
740 3 7.87444 32.0966 12.6518 0 0 0 
741 3 4.51625 31.2434 13.3954 0 0 0 
742 3 3.35418 34.9641 13.2142 0 0 0 
743 4 5.88429 35.7528 5.77063 0 0 0 
744 3 8.07815 23.4253 20.7629 0 0 0 
745 4 7.28561 35.5688 6.13321 0 0 0 
746 3 10.1888 22.6525 21.376 0 0 0 
747 3 8.47053 21.1143 20.9352 0 0 0 
748 3 6.50809 35.0517 5.94318 0 0 0 
749 5 8.91351 22.3903 21.0151 0 0 0 
750 4 3.03625 39.2504 11.1444 0 0 0 
751 4 6.31786 27.323 26.4923 0 0 0 
752 4 0.999021 38.0594 7.50523 0 0 0 
753 4 3.25405 24.7912 22.3884 0 0 0 
754 4 3.30485 38.2309 7.48945 0 0 0 
755 4 6.243 25.5723 22.4377 0 0 0 
756 4 1.06427 39.4395 11.0548 0 0 0 
757 4 2.58777 26.8627 26.4493 0 0 0 
758 4 4.08238 31.4854 7.68719 0 0 0 
759 4 6.69971 18.8269 22.8007 0 0 0 
760 4 6.16071 35.2084 11.7352 0 0 0 
761 4 8.98774 22.5197 26.6561 0 0 0 
762 4 6.70216 33.7967 7.37205 0 0 0 
763 4 9.3861 20.7732 22.7619 0 0 0 
764 4 3.07901 34.3775 11.6028 0 0 0 
765 4 5.51269 21.8046 26.6655 0 0 0 
766 4 1.93925 37.589 11.0757 0 0 0 
767 4 4.98145 24.2601 26.8184 0 0 0 
768 4 2.06762 0.515056 7.5608 0 0 0 
769 4 4.09715 28.0589 22.5289 0 0 0 
770 4 4.80812 35.5787 7.53189 0 0 0 
771 4 6.84929 22.9672 22.5677 0 0 0 
772 4 4.81793 31.4972 11.3421 0 0 0 
773 4 7.27697 18.9576 26.463 0 0 0 
774 4 6.65539 33.49 13.2799 0 0 0 
775 4 5.27107 34.1149 13.4603 0 0 0 
776 4 3.37281 33.9964 5.20129 0 0 0 
777 4 5.33184 21.7544 20.6397 0 0 0 
778 4 4.86896 33.8813 5.24925 0 0 0 
779 4 6.84495 21.2729 20.5424 0 0 0 
780 4 8.78262 32.2713 12.9708 0 0 0 
781 4 7.63891 31.1978 13.0513 0 0 0 
782 4 5.36924 30.8402 13.1325 0 0 0 
783 4 3.90722 30.4929 13.4336 0 0 0 
784 4 2.5638 35.5291 13.2969 0 0 0 
785 4 4.06295 35.6128 13.091 0 0 0 
786 2 10.7271 30.5527 8.73192 0 0 0 
787 2 13.2543 17.8634 23.8654 0 0 0 
788 1 10.6396 37.1725 9.3223 0 0 0 
789 2 13.2451 24.4799 25.0508 0 0 0 
790 2 7.80068 35.4747 9.14185 0 0 0 
791 2 10.3631 22.7933 24.0384 0 0 0 
792 2 13.5503 32.1408 10.1481 0 0 0 
793 2 16.1436 19.5472 24.9975 0 0 0 
794 2 7.80371 38.8006 9.22044 0 0 0 
795 2 10.3268 26.1309 24.5442 0 0 0 
796 2 10.6691 33.8679 9.61519 0 0 0 
797 2 13.2288 21.114 24.6311 0 0 0 
798 3 9.27657 0.376422 10.7635 0 0 0 
799 3 11.5136 27.7246 25.7768 0 0 0 
800 3 6.65506 37.2507 8.25663 0 0 0 
801 3 9.20727 24.5943 23.3987 0 0 0 
802 3 9.91107 38.8152 8.49422 0 0 0 
803 3 12.1735 25.9083 23.3988 0 0 0 
804 3 6.09612 39.0817 10.5608 0 0 0 
805 3 8.35147 26.3658 25.7564 0 0 0 
806 3 9.45288 32.3222 8.23229 0 0 0 
807 3 12.0341 19.6761 23.3493 0 0 0 
808 3 11.5009 35.9542 10.4834 0 0 0 
809 3 14.4364 22.6778 25.8347 0 0 0 
810 3 12.5058 33.7122 8.4369 0 0 0 
811 3 15.0415 20.8549 23.4387 0 0 0 
812 3 8.8367 34.0115 10.6628 0 0 0 
813 3 11.3262 21.3761 25.9019 0 0 0 
814 3 9.09915 37.1435 10.4391 0 0 0 