LAMMPS (12 Apr 2013)

#Lammps 2009 input file generate by DFF

units          real
atom_style     charge
boundary       p p p

read_data      lammps.data
  orthogonal box = (0 0 0) to (17.324 39.708 33.947)
  1 by 1 by 1 MPI processor grid
  1737 atoms
#read_restart       add.rst

pair_style      reax/c NULL
#pair_style      reax/c NULL lgvdw yes

#----Neighbor Section----#
neighbor                1.0 bin
neigh_modify    delay 0 every 10 check no

#read_data      input.data
pair_coeff      * * ffield Al Ca O H C

compute         reax all pair reax/c

variable eb     equal c_reax[1]
variable ea     equal c_reax[2]
variable elp    equal c_reax[3]
variable emol   equal c_reax[4]
variable ev     equal c_reax[5]
variable epen   equal c_reax[6]
variable ecoa   equal c_reax[7]
variable ehb    equal c_reax[8]
variable et     equal c_reax[9]
variable eco    equal c_reax[10]
variable ew     equal c_reax[11]
variable ep     equal c_reax[12]
variable efi    equal c_reax[13]
variable eqeq   equal c_reax[14]

fix             QEQ all qeq/reax 1 0.0 10.0 1.0e-6 reax/c

thermo         1
thermo_style    custom step etotal ke pe temp press vol v_eb v_ea v_elp v_emol v_ev v_epen v_ecoa v_ehb v_et v_eco v_ew v_ep v_efi v_eqeq
thermo_modify   line multi
dump                    1 all custom 1 dump.lmp id type x y z vx vy vz
dump_modify             1 sort id

min_style       cg
minimize        0 1.0e-8 1 4
WARNING: Resetting reneighboring criteria during minimization (../min.cpp:173)
Memory usage per processor = 19.1539 Mbytes
---------------- Step        0 ----- CPU =      0.0000 (sec) ----------------
Step     =              0 TotEng   =   -160894.9280 KinEng   =         0.0000 
PotEng   =   -160894.9280 Temp     =         0.0000 Press    =    108802.7182 
Volume   =     23352.1886 eb       =   -173319.8264 ea       =      5325.1431 
elp      =        30.6251 emol     =         0.0000 ev       =     11236.7614 
epen     =       -18.6511 ecoa     =        -0.0000 ehb      =     -1401.0721 
et       =       291.8048 eco      =        -6.6927 ew       =     49273.6184 
ep       =   -153072.5232 efi      =         0.0000 eqeq     =    100765.8845 
---------------- Step        1 ----- CPU =      1.2486 (sec) ----------------
Step     =              1 TotEng   =   -162885.3733 KinEng   =         0.0000 
PotEng   =   -162885.3733 Temp     =         0.0000 Press    =     38233.2489 
Volume   =     23352.1886 eb       =   -172099.5129 ea       =      3139.1365 
elp      =        30.8130 emol     =         0.0000 ev       =     11721.8174 
epen     =        -0.1634 ecoa     =      -265.2885 ehb      =     -1382.3415 
et       =       122.3203 eco      =        -4.4081 ew       =     48017.6037 
ep       =   -151547.5581 efi      =         0.0000 eqeq     =     99382.2085 
Loop time of 1.24871 on 1 procs for 1 steps with 1737 atoms

Minimization stats:
  Stopping criterion = max iterations
  Energy initial, next-to-last, final = 
        -160894.928024     -160894.928024     -162885.373318
  Force two-norm initial, final = 6416.99 3393.86
  Force max component initial, final = 1008.83 409.392
  Final line search alpha, max atom move = 9.91243e-05 0.0405807
  Iterations, force evaluations = 1 1

Pair  time (%) = 0.791306 (63.3699)
Neigh time (%) = 0 (0)
Comm  time (%) = 0.000145918 (0.0116855)
Outpt time (%) = 0.00806203 (0.645628)
Other time (%) = 0.449196 (35.9728)

Nlocal:    1737 ave 1737 max 1737 min
Histogram: 1 0 0 0 0 0 0 0 0 0
Nghost:    7194 ave 7194 max 7194 min
Histogram: 1 0 0 0 0 0 0 0 0 0
Neighs:    586836 ave 586836 max 586836 min
Histogram: 1 0 0 0 0 0 0 0 0 0

Total # of neighbors = 586836
Ave neighs/atom = 337.845
Neighbor list builds = 0
Dangerous builds = 0

fix            9 all reax/c/bonds 1 bonds.reax
run             0
Memory usage per processor = 21.8397 Mbytes
---------------- Step        1 ----- CPU =      0.0000 (sec) ----------------
Step     =              1 TotEng   =   -162885.3732 KinEng   =         0.0000 
PotEng   =   -162885.3732 Temp     =         0.0000 Press    =     38233.2307 
Volume   =     23352.1886 eb       =   -172099.5129 ea       =      3139.1365 
elp      =        30.8130 emol     =         0.0000 ev       =     11721.8174 
epen     =        -0.1634 ecoa     =      -265.2885 ehb      =     -1382.3415 
et       =       122.3203 eco      =        -4.4081 ew       =     48017.6037 
ep       =   -151547.5189 efi      =         0.0000 eqeq     =     99382.1693 
Loop time of 2.11387e-06 on 1 procs for 0 steps with 1737 atoms

Pair  time (%) = 0 (0)
Neigh time (%) = 0 (0)
Comm  time (%) = 0 (0)
Outpt time (%) = 0 (0)
Other time (%) = 2.11387e-06 (100)

Nlocal:    1737 ave 1737 max 1737 min
Histogram: 1 0 0 0 0 0 0 0 0 0
Nghost:    7194 ave 7194 max 7194 min
Histogram: 1 0 0 0 0 0 0 0 0 0
Neighs:    586905 ave 586905 max 586905 min
Histogram: 1 0 0 0 0 0 0 0 0 0

Total # of neighbors = 586905
Ave neighs/atom = 337.884
Neighbor list builds = 0
Dangerous builds = 0
write_data     out.data
