LAMMPS (12 Apr 2013)

#Lammps 2009 input file generate by DFF

units          real
atom_style     charge
boundary       p p p

read_data      lammps.data
  orthogonal box = (0 0 0) to (17.324 39.708 33.947)
  1 by 1 by 1 MPI processor grid
  1737 atoms
#read_restart       add.rst

pair_style      reax/c NULL
#pair_style      reax/c NULL lgvdw yes

#----Neighbor Section----#
neighbor                1.0 bin
neigh_modify    delay 0 every 10 check no

#read_data      input.data
pair_coeff      * * ffield Al Ca O H C

compute         reax all pair reax/c

variable eb     equal c_reax[1]
variable ea     equal c_reax[2]
variable elp    equal c_reax[3]
variable emol   equal c_reax[4]
variable ev     equal c_reax[5]
variable epen   equal c_reax[6]
variable ecoa   equal c_reax[7]
variable ehb    equal c_reax[8]
variable et     equal c_reax[9]
variable eco    equal c_reax[10]
variable ew     equal c_reax[11]
variable ep     equal c_reax[12]
variable efi    equal c_reax[13]
variable eqeq   equal c_reax[14]

fix             QEQ all qeq/reax 1 0.0 10.0 1.0e-6 reax/c

thermo         1
thermo_style    custom step etotal ke pe temp press vol v_eb v_ea v_elp v_emol v_ev v_epen v_ecoa v_ehb v_et v_eco v_ew v_ep v_efi v_eqeq
thermo_modify   line multi
dump                    1 all custom 1 dump.lmp id type x y z vx vy vz
dump_modify             1 sort id

min_style       cg
minimize        0 1.0e-8 1 4
WARNING: Resetting reneighboring criteria during minimization (../min.cpp:173)
Memory usage per processor = 19.1539 Mbytes
---------------- Step        0 ----- CPU =      0.0000 (sec) ----------------
Step     =              0 TotEng   =   -160651.2033 KinEng   =         0.0000 
PotEng   =   -160651.2033 Temp     =         0.0000 Press    =    108071.7689 
Volume   =     23352.1886 eb       =   -172847.4253 ea       =      5289.1831 
elp      =        30.5082 emol     =         0.0000 ev       =     11208.7335 
epen     =       -18.6511 ecoa     =        -0.0000 ehb      =     -1401.0703 
et       =       292.0212 eco      =        -6.6959 ew       =     49205.1408 
ep       =   -153628.2329 efi      =         0.0000 eqeq     =    101225.2852 
---------------- Step        1 ----- CPU =      1.2331 (sec) ----------------
Step     =              1 TotEng   =   -162648.8942 KinEng   =         0.0000 
PotEng   =   -162648.8942 Temp     =         0.0000 Press    =     37669.7079 
Volume   =     23352.1886 eb       =   -171633.0745 ea       =      3109.7916 
elp      =        30.7063 emol     =         0.0000 ev       =     11688.7081 
epen     =        -0.1612 ecoa     =      -274.8590 ehb      =     -1382.4211 
et       =       122.6855 eco      =        -4.4217 ew       =     47952.8968 
ep       =   -152087.5390 efi      =         0.0000 eqeq     =     99828.7938 
Loop time of 1.23319 on 1 procs for 1 steps with 1737 atoms

Minimization stats:
  Stopping criterion = max iterations
  Energy initial, next-to-last, final = 
        -160651.203333     -160651.203333     -162648.894189
  Force two-norm initial, final = 6398.92 3397.57
  Force max component initial, final = 1008.86 409.337
  Final line search alpha, max atom move = 9.9122e-05 0.0405743
  Iterations, force evaluations = 1 1

Pair  time (%) = 0.785943 (63.7324)
Neigh time (%) = 0 (0)
Comm  time (%) = 0.000142964 (0.011593)
Outpt time (%) = 0.00806599 (0.654074)
Other time (%) = 0.43904 (35.6019)

Nlocal:    1737 ave 1737 max 1737 min
Histogram: 1 0 0 0 0 0 0 0 0 0
Nghost:    7194 ave 7194 max 7194 min
Histogram: 1 0 0 0 0 0 0 0 0 0
Neighs:    586836 ave 586836 max 586836 min
Histogram: 1 0 0 0 0 0 0 0 0 0

Total # of neighbors = 586836
Ave neighs/atom = 337.845
Neighbor list builds = 0
Dangerous builds = 0

fix            9 all reax/c/bonds 1 bonds.reax
run             0
Memory usage per processor = 21.8398 Mbytes
---------------- Step        1 ----- CPU =      0.0000 (sec) ----------------
Step     =              1 TotEng   =   -162648.8941 KinEng   =         0.0000 
PotEng   =   -162648.8941 Temp     =         0.0000 Press    =     37669.6732 
Volume   =     23352.1886 eb       =   -171633.0745 ea       =      3109.7916 
elp      =        30.7063 emol     =         0.0000 ev       =     11688.7081 
epen     =        -0.1612 ecoa     =      -274.8590 ehb      =     -1382.4211 
et       =       122.6855 eco      =        -4.4217 ew       =     47952.8968 
ep       =   -152087.5040 efi      =         0.0000 eqeq     =     99828.7589 
Loop time of 2.89117e-06 on 1 procs for 0 steps with 1737 atoms

Pair  time (%) = 0 (0)
Neigh time (%) = 0 (0)
Comm  time (%) = 0 (0)
Outpt time (%) = 0 (0)
Other time (%) = 2.89117e-06 (100)

Nlocal:    1737 ave 1737 max 1737 min
Histogram: 1 0 0 0 0 0 0 0 0 0
Nghost:    7194 ave 7194 max 7194 min
Histogram: 1 0 0 0 0 0 0 0 0 0
Neighs:    586916 ave 586916 max 586916 min
Histogram: 1 0 0 0 0 0 0 0 0 0

Total # of neighbors = 586916
Ave neighs/atom = 337.891
Neighbor list builds = 0
Dangerous builds = 0
write_data     out.data
