LAMMPS data file via write_data, version 12 Apr 2013, timestep = 1

1737 atoms
5 atom types

0 17.324 xlo xhi
0 39.708 ylo yhi
0 33.947 zlo zhi

Masses

1 26.982
2 40.078
3 15.994
4 1.0079
5 12.011

Atoms

374 4 0.398355 2.73693 2.27274 5.47429 0 0 0
991 3 -0.703626 3.61732 3.82148 5.00558 0 0 0
1029 4 0.300288 3.11476 4.44654 5.45562 0 0 0
1031 4 0.424496 4.46295 3.93433 5.32647 0 0 0
433 4 0.416094 8.51075 2.27299 5.47434 0 0 0
1076 3 -0.708554 9.39787 3.82047 5.0053 0 0 0
1112 4 0.400977 8.89155 4.44512 5.45546 0 0 0
1114 4 0.346995 10.2354 3.9348 5.32677 0 0 0
313 4 0.396269 14.2858 2.27282 5.47433 0 0 0
907 3 -0.707684 15.1713 3.82167 5.00621 0 0 0
945 4 0.297553 14.6654 4.446 5.45569 0 0 0
947 4 0.302224 16.0093 3.9351 5.32693 0 0 0
1324 3 -0.698777 0.749601 8.73651 5.00815 0 0 0
1352 4 0.385958 1.60225 8.81814 5.2368 0 0 0
1354 4 0.321168 0.570111 7.86035 5.26567 0 0 0
1416 4 0.402008 4.18913 7.19152 5.55073 0 0 0
1385 3 -0.707018 6.52644 8.73974 5.00761 0 0 0
1412 4 0.388101 7.37759 8.81898 5.23655 0 0 0
1414 4 0.407681 6.34417 7.85992 5.26634 0 0 0
1476 4 0.322729 9.96341 7.19175 5.55191 0 0 0
1357 4 0.310295 15.7373 7.1915 5.55214 0 0 0
1445 3 -0.701636 12.2996 8.73653 5.00815 0 0 0
1472 4 0.387618 13.1523 8.81815 5.2368 0 0 0
1474 4 0.318947 12.1201 7.86035 5.26566 0 0 0
1422 4 0.415608 2.74668 12.2 5.47429 0 0 0
1606 3 -0.709853 3.6329 13.7476 5.00529 0 0 0
1644 4 0.396462 3.12652 14.3721 5.45549 0 0 0
1646 4 0.338054 4.47035 13.8617 5.32679 0 0 0
1482 4 0.3999 8.52081 12.1998 5.47436 0 0 0
1691 3 -0.708316 9.40633 13.7487 5.00618 0 0 0
1728 4 0.298636 8.90042 14.373 5.45572 0 0 0
1730 4 0.303263 10.2443 13.8621 5.32693 0 0 0
1362 4 0.398897 14.296 12.1998 5.47428 0 0 0
1522 3 -0.701963 15.1763 13.7485 5.0056 0 0 0
1560 4 0.298443 14.6738 14.3735 5.45562 0 0 0
1562 4 0.425982 16.022 13.8613 5.32646 0 0 0
1143 3 -0.701944 0.761467 18.6667 5.00762 0 0 0
1170 4 0.387822 1.61258 18.746 5.23654 0 0 0
1172 4 0.409313 0.579151 17.7869 5.26634 0 0 0
1235 4 0.290971 4.19809 17.1189 5.55188 0 0 0
1241 4 0.401309 2.75587 22.1278 5.47427 0 0 0
1203 3 -0.70509 6.53452 18.6633 5.00817 0 0 0
1231 4 0.385356 7.38726 18.7452 5.23684 0 0 0
1233 4 0.285767 6.35539 17.788 5.26557 0 0 0
1295 4 0.304343 9.97234 17.1185 5.55213 0 0 0
1301 4 0.416682 8.53068 22.128 5.4744 0 0 0
1175 4 0.404353 15.7481 17.1185 5.55073 0 0 0
1180 4 0.395831 14.3058 22.1277 5.47433 0 0 0
1264 3 -0.702328 12.3086 18.6635 5.00817 0 0 0
1291 4 0.387363 13.1613 18.7451 5.23679 0 0 0
1293 4 0.318326 12.1291 17.7873 5.26566 0 0 0
123 3 -0.703429 3.63742 23.6755 5.0056 0 0 0
161 4 0.303125 3.13472 24.3005 5.45559 0 0 0
163 4 0.421002 4.48271 23.7883 5.32645 0 0 0
486 4 0.287082 0.590366 27.715 5.26556 0 0 0
548 4 0.400722 4.20888 27.0456 5.5508 0 0 0
208 3 -0.716736 9.41806 23.6745 5.00513 0 0 0
245 4 0.393404 8.91002 24.2993 5.45586 0 0 0
247 4 0.302978 10.2541 23.7886 5.32681 0 0 0
546 4 0.408728 6.36326 27.7142 5.26638 0 0 0
608 4 0.289911 9.98245 27.0459 5.55187 0 0 0
39 3 -0.707877 15.1901 23.6757 5.00609 0 0 0
77 4 0.302205 14.6853 24.3002 5.45592 0 0 0
79 4 0.339993 16.029 23.789 5.32697 0 0 0
489 4 0.281057 15.7559 27.0456 5.55212 0 0 0
606 4 0.287755 12.1394 27.715 5.26559 0 0 0
456 3 -0.702266 0.769549 28.5903 5.00819 0 0 0
484 4 0.382193 1.62227 28.6722 5.2368 0 0 0
554 4 0.416824 2.76572 32.0549 5.47434 0 0 0
738 3 -0.7106 3.65279 33.6016 5.00527 0 0 0
778 4 0.341399 4.4894 33.7167 5.32682 0 0 0
517 3 -0.709559 6.54548 28.5937 5.0075 0 0 0
544 4 0.388823 7.39652 28.6729 5.23661 0 0 0
614 4 0.395725 8.54072 32.0547 5.47435 0 0 0
823 3 -0.709716 9.42537 33.6027 5.00619 0 0 0
861 4 0.300913 10.2634 33.7171 5.32692 0 0 0
494 4 0.401946 14.3149 32.0547 5.47433 0 0 0
577 3 -0.704825 12.3185 28.5903 5.00814 0 0 0
604 4 0.386323 13.1713 28.6722 5.23681 0 0 0
654 3 -0.703924 15.1963 33.6025 5.00562 0 0 0
694 4 0.420813 16.042 33.7163 5.32645 0 0 0
276 3 -0.703097 0.780358 38.5208 5.00766 0 0 0
303 4 0.395422 1.63157 38.6 5.23658 0 0 0
305 4 0.408959 0.598186 37.6409 5.26634 0 0 0
368 4 0.289354 4.21712 36.9729 5.55186 0 0 0
776 4 0.396499 3.14559 34.226 5.45545 0 0 0
336 3 -0.703341 6.55346 38.5174 5.00823 0 0 0
364 4 0.382926 7.40624 38.5992 5.23682 0 0 0
366 4 0.283368 6.37439 37.642 5.26557 0 0 0
427 4 0.310135 9.99137 36.9725 5.55221 0 0 0
859 4 0.294488 8.92035 34.227 5.45574 0 0 0
308 4 0.398348 15.7681 36.9725 5.55074 0 0 0
397 3 -0.702265 12.3286 38.5175 5.00811 0 0 0
423 4 0.384318 13.1812 38.5992 5.23684 0 0 0
425 4 0.319408 12.1491 37.6414 5.26571 0 0 0
692 4 0.29597 14.6937 34.2275 5.45563 0 0 0
333 3 -0.774521 4.87425 0.705675 6.32733 0 0 0
340 3 -0.721591 2.07978 1.64961 5.68261 0 0 0
358 4 0.399258 5.32111 0.0134745 5.91214 0 0 0
360 4 0.333017 3.91698 0.477245 6.0211 0 0 0
372 4 0.34034 1.24544 2.05746 5.67254 0 0 0
713 3 -0.813344 3.09275 0.345362 10.4329 0 1 0
731 3 -0.806313 1.46449 0.592205 8.43459 0 1 0
768 4 0.362679 1.88343 0.644291 7.6191 0 1 0
875 2 1.36166 1.96538 2.38356 10.0122 0 0 0
892 3 -1.01721 0.119349 5.30609 10.5269 1 0 0
894 3 -1.06703 0.692465 3.75408 8.52724 1 0 0
912 4 0.108187 1.9288 5.53185 6.3991 0 0 0
914 4 0.193299 0.374594 4.13645 5.69603 0 0 0
916 3 -0.591801 0.763921 5.31581 5.92526 0 0 0
931 4 0.298973 0.533412 3.71914 7.61293 1 0 0
954 2 1.31386 4.90187 0.746585 8.87011 0 0 0
964 2 2.00397 4.86182 4.04426 9.50792 0 0 0
974 3 -1.04581 3.8311 2.79779 8.45731 0 0 0
980 3 -1.04818 3.25029 4.28804 10.4845 0 0 0
986 3 -1.0689 4.31025 5.57082 8.49604 0 0 0
988 3 -1.04784 5.43768 2.50385 10.5007 0 0 0
1011 4 0.335954 3.6926 2.88573 7.55215 0 0 0
1017 4 0.381833 3.30876 4.73598 11.2739 0 0 0
1023 4 0.335599 4.61226 5.50555 7.66903 0 0 0
394 3 -0.690783 10.6477 0.705435 6.32977 0 0 0
401 3 -0.722863 7.85508 1.64867 5.68245 0 0 0
417 4 0.410667 11.095 0.0138797 5.91309 0 0 0
419 4 0.339403 9.69289 0.477543 6.02194 0 0 0
431 4 0.41853 7.01925 2.05846 5.67253 0 0 0
798 3 -0.946242 8.872 0.345522 10.4322 0 1 0
816 3 -1.0451 7.24089 0.591443 8.43212 0 1 0
833 4 0.377925 9.15348 0.00132339 11.1997 0 1 0
851 4 0.382309 7.65655 0.647352 7.61911 0 1 0
960 2 1.38117 7.74038 2.38333 10.0116 0 0 0
976 3 -1.02432 5.89322 5.30591 10.5268 0 0 0
978 3 -1.06582 6.46606 3.75392 8.52843 0 0 0
998 3 -0.639517 7.81551 5.55317 6.44374 0 0 0
1000 3 -0.504635 6.11567 4.03767 5.67659 0 0 0
1001 5 0.525006 6.51671 5.31976 5.91434 0 0 0
1015 4 0.372584 6.30921 3.71812 7.6149 0 0 0
1039 1 0.719148 10.6742 0.743175 8.87321 0 0 0
1049 2 2.01008 10.636 4.04403 9.50789 0 0 0
1059 3 -0.934965 9.60933 2.79155 8.45857 0 0 0
1065 3 -1.05606 9.02526 4.28804 10.4845 0 0 0
1071 3 -1.05876 10.0862 5.57098 8.49637 0 0 0
1073 3 -0.954662 11.2117 2.50052 10.4978 0 0 0
1094 4 0.355567 9.46673 2.88509 7.55205 0 0 0
1100 4 0.385264 9.08276 4.73598 11.2739 0 0 0
1106 4 0.339567 10.3869 5.5053 7.66927 0 0 0
274 3 -0.786786 16.4234 0.706114 6.3272 0 0 0
280 3 -0.719711 13.6298 1.64945 5.68246 0 0 0
298 4 0.40789 16.8701 0.0133327 5.9122 0 0 0
300 4 0.332107 15.466 0.477176 6.02114 0 0 0
311 4 0.370377 12.7944 2.05754 5.67265 0 0 0
628 3 -1.0577 14.6433 0.344108 10.4353 0 1 0
646 3 -0.942093 13.0106 0.592132 8.43357 0 1 0
665 4 0.338507 14.9277 0.00147868 11.2 0 1 0
683 4 0.359308 13.4309 0.647341 7.61864 0 1 0
870 2 1.31207 16.45 0.746232 8.87003 0 0 0
880 2 2.007 16.4109 4.04438 9.50806 0 0 0
890 3 -1.04812 15.3803 2.79785 8.45723 0 0 0
896 3 -1.05018 14.7992 4.28796 10.4845 0 0 0
902 3 -1.06629 15.8603 5.57096 8.49569 0 0 0
904 3 -1.04513 16.9867 2.50388 10.5006 0 0 0
927 4 0.326318 15.2414 2.88571 7.55218 0 0 0
933 4 0.383312 14.8578 4.73601 11.2739 0 0 0
939 4 0.313409 16.1623 5.50528 7.66936 0 0 0
1045 2 1.37911 13.5145 2.38318 10.0116 0 0 0
1061 3 -1.02186 11.6683 5.306 10.5269 0 0 0
1063 3 -1.04926 12.2417 3.75484 8.52728 0 0 0
1081 4 0.106139 13.4774 5.53325 6.39907 0 0 0
1084 3 -0.505655 12.3204 5.32877 5.92858 0 0 0
1098 4 0.33771 12.0834 3.71893 7.61273 0 0 0
956 2 1.36672 4.87959 7.38683 10.046 0 0 0
958 2 1.24261 1.99929 5.68399 8.9157 0 0 0
962 2 2.01284 2.00769 9.00931 9.43579 0 0 0
966 3 -1.05203 3.0644 10.2713 10.4353 0 0 0
968 3 -1.04906 0.961512 7.73476 8.45399 0 0 0
970 3 -1.06305 3.61709 8.74734 8.45134 0 0 0
972 3 -1.05041 0.412938 9.30636 10.4421 0 0 0
982 3 -1.04276 2.57044 7.48673 10.4646 0 0 0
984 3 -1.05293 1.43744 10.5186 8.43234 0 0 0
996 3 -0.552076 5.69103 6.38317 5.66374 0 0 0
1003 4 0.345779 3.34873 9.92847 11.2 0 0 0
1005 4 0.322638 0.780411 7.79017 7.5525 0 0 0
1007 4 0.36043 3.47657 8.67581 7.53684 0 0 0
1009 4 0.321917 0.521299 9.65947 11.2523 0 0 0
1019 4 0.332459 2.33785 7.14379 11.2863 0 0 0
1021 4 0.365588 1.85235 10.5743 7.61899 0 0 0
1382 3 -0.77975 4.88327 10.6331 6.32728 0 0 0
1387 3 -0.717521 3.37359 7.69917 5.72898 0 0 0
1406 4 0.407983 5.33024 9.94028 5.91215 0 0 0
1408 4 0.333502 3.92684 10.4042 6.02113 0 0 0
1418 4 0.276104 2.75676 6.98459 5.86876 0 0 0
1569 2 1.35064 4.91113 10.6732 8.87021 0 0 0
1041 2 1.35841 10.6543 7.38676 10.0459 0 0 0
1043 2 1.32814 7.77477 5.68434 8.91774 0 0 0
1047 2 2.01708 7.78249 9.00945 9.4361 0 0 0
1051 3 -0.926666 8.8369 10.2766 10.4337 0 0 0
1053 3 -1.0466 6.73525 7.73567 8.4546 0 0 0
1055 3 -1.06507 9.39114 8.74732 8.45144 0 0 0
1057 3 -1.04361 6.18735 9.3059 10.4413 0 0 0
1067 3 -1.04875 8.34582 7.48652 10.464 0 0 0
1069 3 -0.959843 7.21326 10.522 8.43504 0 0 0
1086 4 0.349127 9.12349 9.92896 11.2006 0 0 0
1088 4 0.353559 6.55538 7.78953 7.55224 0 0 0
1090 4 0.363532 9.25151 8.6758 7.53685 0 0 0
1092 4 0.408989 6.29516 9.65937 11.2518 0 0 0
1102 4 0.394437 8.11206 7.14383 11.2855 0 0 0
1104 4 0.368633 7.62764 10.5747 7.61909 0 0 0
1442 3 -0.782527 10.6583 10.6332 6.32727 0 0 0
1447 3 -0.720627 9.15152 7.70065 5.72791 0 0 0
1466 4 0.405609 11.1052 9.94034 5.91218 0 0 0
1468 4 0.335225 9.70184 10.4042 6.02114 0 0 0
1478 4 0.385229 8.53054 6.98539 5.86918 0 0 0
1654 2 1.3499 10.6852 10.6731 8.87021 0 0 0
872 2 1.37389 16.4293 7.38686 10.0458 0 0 0
873 2 1.24486 13.5493 5.68408 8.91573 0 0 0
877 2 2.01636 13.5576 9.00934 9.43582 0 0 0
881 3 -1.04806 14.6134 10.2713 10.4353 0 0 0
883 3 -1.05089 12.5104 7.73481 8.45401 0 0 0
885 3 -1.059 15.1661 8.7473 8.45131 0 0 0
887 3 -1.05367 11.9619 9.30626 10.4421 0 0 0
897 3 -1.03743 14.1204 7.48675 10.4646 0 0 0
899 3 -1.05792 12.9864 10.5187 8.43234 0 0 0
918 4 0.34649 14.8987 9.92847 11.2 0 0 0
920 4 0.318306 12.3304 7.79017 7.55248 0 0 0
922 4 0.360365 15.0265 8.67584 7.53685 0 0 0
924 4 0.324409 12.0703 9.65948 11.2523 0 0 0
934 4 0.334278 13.8869 7.14379 11.2863 0 0 0
936 4 0.363943 13.4014 10.5742 7.61899 0 0 0
1322 3 -0.762857 16.4331 10.6328 6.32753 0 0 0
1327 3 -0.70525 14.9247 7.69824 5.72873 0 0 0
1347 4 0.40958 16.8802 9.94039 5.91215 0 0 0
1349 4 0.335971 15.4759 10.4043 6.02113 0 0 0
1359 4 0.270787 14.3071 6.98467 5.86848 0 0 0
1485 2 1.34329 16.4601 10.6732 8.87005 0 0 0
1237 4 0.38286 2.7655 16.9124 5.86918 0 0 0
1389 3 -0.721122 2.09016 11.5757 5.68254 0 0 0
1420 4 0.422438 1.25425 11.9855 5.67249 0 0 0
1490 2 1.37325 1.97553 12.3102 10.0117 0 0 0
1507 3 -1.01826 0.129316 15.2329 10.5268 1 0 0
1509 3 -1.06292 0.701061 13.6809 8.52843 1 0 0
1527 3 -0.640556 2.05053 15.4802 6.44373 0 0 0
1529 3 -0.502413 0.350683 13.9647 5.67658 0 0 0
1531 5 0.524827 0.751709 15.2468 5.91436 0 0 0
1546 4 0.373957 0.544209 13.6451 7.6149 1 0 0
1573 2 1.3299 2.00982 15.6113 8.91771 0 0 0
1579 2 2.00216 4.87095 13.9715 9.50807 0 0 0
1589 3 -1.04314 3.84129 12.7246 8.45739 0 0 0
1595 3 -1.05444 3.2603 14.2149 10.4847 0 0 0
1601 3 -1.05764 4.32141 15.4981 8.49624 0 0 0
1603 3 -0.934303 5.454 12.4307 10.4992 0 0 0
1611 4 0.180595 5.76863 16.2292 5.68343 0 0 0
1626 4 0.345904 3.70139 12.8128 7.55221 0 0 0
1632 4 0.384166 3.31876 14.663 11.2739 0 0 0
1638 4 0.325205 4.62184 15.4322 7.66932 0 0 0
1297 4 0.265128 8.5421 16.9117 5.8685 0 0 0
1449 3 -0.718544 7.86475 11.5764 5.68245 0 0 0
1480 4 0.366447 7.02948 11.9846 5.67261 0 0 0
1575 1 0.715246 7.74852 12.3106 10.0106 0 0 0
1591 3 -1.01478 5.90291 15.2333 10.5271 0 0 0
1593 3 -0.953271 6.47946 13.678 8.53074 0 0 0
1613 4 0.104848 7.71229 15.4618 6.39913 0 0 0
1616 3 -0.589734 6.54473 15.2655 5.92518 0 0 0
1630 4 0.317087 6.31864 13.6458 7.61241 0 0 0
1658 2 1.24619 7.78455 15.6108 8.9154 0 0 0
1664 2 2.00846 10.6459 13.9711 9.50813 0 0 0
1674 3 -0.949691 9.61209 12.7241 8.45973 0 0 0
1680 3 -0.930475 9.03075 14.2098 10.4832 0 0 0
1686 3 -1.07064 10.0954 15.4979 8.49571 0 0 0
1688 3 -1.02812 11.2223 12.4309 10.5008 0 0 0
1710 4 0.325933 9.476 12.8127 7.55215 0 0 0
1716 4 0.374137 9.0924 14.6626 11.2743 0 0 0
1722 4 0.314055 10.3972 15.4323 7.66938 0 0 0
1177 4 0.275304 14.3158 16.9116 5.86876 0 0 0
1328 3 -0.71934 13.6397 11.5766 5.68254 0 0 0
1360 4 0.342066 12.8045 11.9844 5.67257 0 0 0
1488 2 1.23838 13.5582 15.6111 8.91573 0 0 0
1495 2 2.0143 16.4208 13.9713 9.50802 0 0 0
1505 3 -1.04227 15.39 12.7248 8.45737 0 0 0
1511 3 -1.04804 14.8092 14.215 10.4845 0 0 0
1517 3 -1.06662 15.8702 15.4978 8.496 0 0 0
1519 3 -1.03973 16.9967 12.4308 10.5006 0 0 0
1526 3 -0.549344 17.25 16.3102 5.66372 -1 0 0
1542 4 0.337181 15.2516 12.8127 7.55215 0 0 0
1548 4 0.384845 14.8678 14.663 11.2739 0 0 0
1554 4 0.337465 16.1723 15.4326 7.66904 0 0 0
1660 2 1.36604 13.5246 12.3101 10.0119 0 0 0
1676 3 -1.0197 11.6783 15.233 10.5269 0 0 0
1678 3 -1.06447 12.2514 13.6811 8.52726 0 0 0
1696 4 0.105275 13.4878 15.4588 6.39911 0 0 0
1698 4 0.193905 11.9336 14.0634 5.69602 0 0 0
1700 3 -0.592846 12.3239 15.2428 5.92527 0 0 0
1714 4 0.298912 12.0924 13.6461 7.61293 0 0 0
7 2 1.36163 1.98558 22.2371 10.012 0 0 0
86 2 1.33554 4.91975 20.6003 8.87005 0 0 0
106 3 -1.05142 3.85009 22.6519 8.4574 0 0 0
120 3 -0.944719 5.46317 22.3577 10.4992 0 0 0
1200 3 -0.772813 4.89326 20.5598 6.3272 0 0 0
1205 3 -0.721306 3.38675 17.6276 5.72794 0 0 0
1207 3 -0.723626 2.09981 21.5035 5.68259 0 0 0
1225 4 0.402587 5.34024 19.8674 5.91212 0 0 0
1227 4 0.331856 3.93682 20.3313 6.0211 0 0 0
1239 4 0.366237 1.26443 21.9116 5.67251 0 0 0
1571 2 1.34329 4.88896 17.3134 10.046 0 0 0
1577 2 2.01813 2.01774 18.9362 9.43587 0 0 0
1581 3 -1.05397 3.07468 20.1982 10.435 0 0 0
1583 3 -1.04513 0.970265 17.6625 8.45462 0 0 0
1585 3 -1.06762 3.62619 18.6744 8.45131 0 0 0
1587 3 -1.05498 0.422611 19.2335 10.4411 0 0 0
1597 3 -1.04954 2.58075 17.4134 10.464 0 0 0
1599 3 -1.05666 1.44741 20.4456 8.43236 0 0 0
1618 4 0.350062 3.35859 19.8555 11.2002 0 0 0
1620 4 0.355611 0.790362 17.7166 7.55225 0 0 0
1622 4 0.358934 3.48647 18.6028 7.53686 0 0 0
1624 4 0.385206 0.530005 19.5861 11.252 0 0 0
1634 4 0.390713 2.34707 17.0708 11.2855 0 0 0
1636 4 0.362178 1.86237 20.5012 7.619 0 0 0
92 1 0.754215 7.75794 22.2414 10.0099 0 0 0
171 2 1.33605 10.695 20.6004 8.87067 0 0 0
191 3 -0.934719 9.6223 22.6505 8.45978 0 0 0
205 3 -1.03321 11.2321 22.358 10.5009 0 0 0
1261 3 -0.786427 10.6682 20.5602 6.32707 0 0 0
1266 3 -0.715187 9.15974 17.6253 5.72877 0 0 0
1268 3 -0.724814 7.87511 21.5026 5.68246 0 0 0
1285 4 0.40246 11.1152 19.8673 5.91216 0 0 0
1287 4 0.332596 9.71085 20.3313 6.02117 0 0 0
1299 4 0.421168 7.03928 21.9125 5.67256 0 0 0
1656 2 1.35417 10.6647 17.3137 10.046 0 0 0
1662 1 0.879418 7.79359 18.9413 9.43481 0 0 0
1666 3 -0.708729 8.84605 20.2033 10.4315 0 0 0
1668 3 -0.81354 6.74494 17.6601 8.45714 0 0 0
1670 3 -0.828334 9.40232 18.6741 8.45415 0 0 0
1672 3 -0.809795 6.19533 19.2318 10.4397 0 0 0
1682 3 -0.794241 8.35748 17.4133 10.4621 0 0 0
1684 3 -0.7261 7.22125 20.4486 8.43694 0 0 0
1702 4 0.337576 9.13196 19.8528 11.1998 0 0 0
1704 4 0.286177 6.56699 17.72 7.55137 0 0 0
1706 4 0.353755 9.25803 18.6032 7.5366 0 0 0
1708 4 0.34648 6.30914 19.587 11.2524 0 0 0
1718 4 0.303928 8.11985 17.0723 11.2877 0 0 0
1720 4 0.369411 7.63867 20.4988 7.61937 0 0 0
2 2 1.34446 16.4701 20.6002 8.87006 0 0 0
22 3 -1.03989 15.4001 22.6517 8.45728 0 0 0
36 3 -1.03833 17.0067 22.3578 10.5006 0 0 0
177 2 1.36639 13.5345 22.2371 10.0118 0 0 0
1141 3 -0.771289 16.4423 20.5601 6.3275 0 0 0
1146 3 -0.713391 14.9326 17.6261 5.729 0 0 0
1147 3 -0.720536 13.6488 21.5037 5.68251 0 0 0
1165 4 0.412799 16.8892 19.8673 5.91214 0 0 0
1167 4 0.337003 15.4859 20.3312 6.02111 0 0 0
1178 4 0.339912 12.8135 21.9114 5.67259 0 0 0
1487 2 1.38196 16.4385 17.3137 10.046 0 0 0
1492 2 2.01488 13.5666 18.9363 9.43594 0 0 0
1496 3 -1.04879 14.6235 20.1983 10.4353 0 0 0
1498 3 -1.05345 12.5205 17.6619 8.4539 0 0 0
1500 3 -1.06077 15.176 18.6743 8.45136 0 0 0
1502 3 -1.05261 11.9719 19.2334 10.4421 0 0 0
1512 3 -1.03953 14.1305 17.4137 10.4645 0 0 0
1514 3 -1.05766 12.9964 20.4456 8.4323 0 0 0
1533 4 0.345187 14.9087 19.8555 11.2 0 0 0
1535 4 0.315002 12.3395 17.7171 7.55247 0 0 0
1537 4 0.362394 15.0356 18.6028 7.53683 0 0 0
1539 4 0.326425 12.0803 19.5864 11.2523 0 0 0
1549 4 0.351271 13.8968 17.0709 11.2865 0 0 0
1551 4 0.361828 13.4114 20.5012 7.61899 0 0 0
24 3 -1.01994 0.138403 25.1601 10.5269 1 0 0
26 3 -1.06548 0.711597 23.6082 8.52741 1 0 0
45 4 0.103715 1.94733 25.3888 6.39911 0 0 0
48 3 -0.584459 0.779757 25.1925 5.92516 0 0 0
63 4 0.327255 0.553399 23.5741 7.61265 1 0 0
88 2 1.40641 4.89939 27.2409 10.046 0 0 0
90 2 1.23034 2.01935 25.5381 8.91577 0 0 0
96 2 1.99097 4.88095 23.8987 9.5081 0 0 0
100 3 -1.05474 0.98058 27.5887 8.45395 0 0 0
112 3 -1.05279 3.26935 24.142 10.4845 0 0 0
114 3 -1.04638 2.59036 27.3408 10.4646 0 0 0
118 3 -1.06327 4.32968 25.4246 8.4958 0 0 0
128 3 -0.552148 5.70953 26.238 5.66346 0 0 0
137 4 0.307139 0.800443 27.6442 7.55251 0 0 0
143 4 0.33442 3.71158 22.7407 7.55216 0 0 0
149 4 0.379188 3.32775 24.59 11.2739 0 0 0
151 4 0.329829 2.35687 26.9978 11.2863 0 0 0
155 4 0.347493 4.63246 25.3606 7.66914 0 0 0
519 3 -0.721818 3.3926 27.5531 5.72895 0 0 0
550 4 0.267604 2.77584 26.8386 5.86877 0 0 0
43 4 0.181675 0.00368374 26.1562 5.68344 0 0 0
108 3 -0.934328 5.91542 25.1608 10.5252 0 0 0
110 3 -0.857294 6.49318 23.6098 8.53288 0 0 0
129 3 -0.5566 7.82284 25.4057 6.44421 0 0 0
131 3 -0.507633 6.13466 23.8905 5.67627 0 0 0
133 5 0.528271 6.5499 25.1762 5.92045 0 0 0
147 4 0.374054 6.32893 23.5734 7.61483 0 0 0
173 2 1.36922 10.6734 27.2409 10.0459 0 0 0
175 1 0.709324 7.79411 25.536 8.91692 0 0 0
181 2 1.99716 10.6556 23.8978 9.50791 0 0 0
185 3 -0.92927 6.75859 27.583 8.45588 0 0 0
197 3 -0.849759 9.0379 24.1394 10.4804 0 0 0
199 3 -0.964265 8.36454 27.3369 10.4612 0 0 0
203 3 -0.950911 10.1 25.4256 8.49764 0 0 0
221 4 0.374624 6.57458 27.643 7.55219 0 0 0
227 4 0.354179 9.48578 22.7409 7.55228 0 0 0
233 4 0.384385 9.10198 24.59 11.2739 0 0 0
235 4 0.40536 8.13184 26.9972 11.2852 0 0 0
239 4 0.322422 10.4063 25.3602 7.66905 0 0 0
579 3 -0.718797 9.17183 27.5547 5.72771 0 0 0
610 4 0.387282 8.54976 26.8387 5.86976 0 0 0
213 4 0.182081 11.5515 26.1543 5.68249 0 0 0
4 2 1.36435 16.4483 27.2408 10.0458 0 0 0
5 2 1.25285 13.5684 25.5381 8.91546 0 0 0
12 2 2.02505 16.4308 23.8983 9.50796 0 0 0
15 3 -1.05266 12.5294 27.5889 8.45397 0 0 0
28 3 -1.04572 14.8192 24.142 10.4845 0 0 0
29 3 -1.0392 14.1395 27.3407 10.4645 0 0 0
34 3 -1.06348 15.8794 25.4251 8.49573 0 0 0
52 4 0.311695 12.3495 27.6442 7.5525 0 0 0
59 4 0.332871 15.2605 22.7407 7.5522 0 0 0
65 4 0.384512 14.8778 24.59 11.2739 0 0 0
66 4 0.350316 13.9068 26.9979 11.2865 0 0 0
71 4 0.310386 16.1812 25.3602 7.6694 0 0 0
193 3 -1.02923 11.6882 25.16 10.5267 0 0 0
195 3 -1.06593 12.2613 23.6082 8.52732 0 0 0
216 4 0.19289 11.9408 23.9915 5.69504 0 0 0
217 3 -0.629084 12.313 25.178 5.91797 0 0 0
231 4 0.302232 12.1025 23.5741 7.61292 0 0 0
459 3 -0.709736 14.944 27.5523 5.72867 0 0 0
491 4 0.279114 14.3269 26.8382 5.86865 0 0 0
94 2 2.00427 2.02761 28.8636 9.43577 0 0 0
98 3 -0.958669 3.08683 30.1261 10.4326 0 0 0
102 3 -0.958696 3.63993 28.6066 8.45251 0 0 0
104 3 -1.05475 0.432008 29.1603 10.4421 0 0 0
116 3 -1.04854 1.45695 30.3725 8.43224 0 0 0
135 4 0.351515 3.36929 29.7825 11.1998 0 0 0
139 4 0.367432 3.49702 28.5305 7.53665 0 0 0
141 4 0.318552 0.540288 29.5135 11.2523 0 0 0
153 4 0.383544 1.87159 30.4283 7.61909 0 0 0
514 3 -0.690467 4.90253 30.4865 6.32982 0 0 0
521 3 -0.722121 2.11011 31.4297 5.68246 0 0 0
538 4 0.411691 5.35013 29.7948 5.91301 0 0 0
540 4 0.341367 3.94682 30.2586 6.02197 0 0 0
552 4 0.419348 1.27425 31.8394 5.67253 0 0 0
622 2 1.38029 1.9944 32.1644 10.0115 0 0 0
641 3 -1.06544 0.720918 33.5349 8.5284 1 0 0
662 3 -0.508639 0.370622 33.8186 5.67656 0 0 0
678 4 0.370765 0.563255 33.5001 7.61491 1 0 0
701 1 0.688434 4.92917 30.5269 8.87217 0 0 0
711 2 2.00336 4.89092 33.8252 9.50781 0 0 0
721 3 -0.933611 3.86336 32.5725 8.4586 0 0 0
735 3 -0.957357 5.46558 32.2817 10.4978 0 0 0
758 4 0.355755 3.72171 32.6671 7.55204 0 0 0
179 2 2.00661 7.80172 28.8629 9.43577 0 0 0
183 3 -1.05429 8.85866 30.1251 10.4349 0 0 0
187 3 -1.0556 9.41132 28.602 8.4512 0 0 0
189 3 -0.96176 6.20416 29.1631 10.4382 0 0 0
201 3 -0.943267 7.22515 30.3731 8.43369 0 0 0
219 4 0.351796 9.14364 29.7826 11.2001 0 0 0
223 4 0.368726 9.27144 28.5296 7.53689 0 0 0
225 4 0.389814 6.31468 29.5136 11.2518 0 0 0
237 4 0.355813 7.64589 30.4283 7.61857 0 0 0
574 3 -0.786336 10.6782 30.4872 6.3273 0 0 0
581 3 -0.721051 7.88388 31.4305 5.68245 0 0 0
598 4 0.401456 11.1242 29.7943 5.91216 0 0 0
600 4 0.328814 9.72088 30.2582 6.02114 0 0 0
612 4 0.370278 7.04845 31.8385 5.67263 0 0 0
707 2 1.38515 7.7695 32.164 10.0118 0 0 0
725 3 -1.05521 6.49677 33.5359 8.5273 0 0 0
762 4 0.33528 6.33738 33.5009 7.61272 0 0 0
786 2 1.34198 10.7051 30.5272 8.8703 0 0 0
796 2 1.99797 10.6658 33.8256 9.50832 0 0 0
806 3 -1.05517 9.63529 32.5789 8.45731 0 0 0
820 3 -0.934645 11.248 32.2846 10.4992 0 0 0
841 4 0.323742 9.49646 32.6677 7.55218 0 0 0
9 2 2.01762 13.5765 28.8635 9.43601 0 0 0
13 3 -0.92798 14.6307 30.1307 10.4339 0 0 0
17 3 -1.06229 15.1861 28.6012 8.45137 0 0 0
19 3 -1.04589 11.9816 29.1598 10.4421 0 0 0
31 3 -0.961212 13.0072 30.376 8.43502 0 0 0
50 4 0.339375 14.9175 29.7829 11.2004 0 0 0
54 4 0.358641 15.0455 28.5299 7.53687 0 0 0
56 4 0.358139 12.0905 29.5136 11.2523 0 0 0
68 4 0.368392 13.4217 30.4287 7.61908 0 0 0
454 3 -0.76696 16.4522 30.4869 6.32732 0 0 0
460 3 -0.714473 13.6587 31.4306 5.68244 0 0 0
479 4 0.405586 16.8992 29.7944 5.91215 0 0 0
481 4 0.336802 15.4958 30.2583 6.02113 0 0 0
492 4 0.345912 12.8235 31.8384 5.67262 0 0 0
617 2 1.35475 16.4792 30.5271 8.87011 0 0 0
627 2 1.99803 16.4399 33.8251 9.50805 0 0 0
637 3 -0.948885 15.4069 32.5781 8.4598 0 0 0
651 3 -1.03496 17.0173 32.2849 10.5009 0 0 0
674 4 0.334306 15.2701 32.6676 7.55214 0 0 0
792 1 0.710455 13.5435 32.1646 10.0106 0 0 0
810 3 -0.955869 12.2735 33.532 8.53071 0 0 0
830 4 0.194623 11.9536 33.9174 5.69603 0 0 0
845 4 0.292567 12.1126 33.5008 7.61269 0 0 0
750 4 0.355786 3.37714 39.7064 11.1999 0 0 0
338 3 -0.72143 3.40677 37.4816 5.72798 0 0 0
370 4 0.387321 2.78555 36.7665 5.86917 0 0 0
639 3 -1.02651 0.148078 35.0868 10.5269 1 0 0
660 3 -0.639745 2.07102 35.3345 6.44407 0 0 0
663 5 0.519911 0.769958 35.1009 5.91359 0 0 0
703 2 1.34376 4.9086 37.1677 10.0461 0 0 0
705 2 1.32099 2.02898 35.465 8.91789 0 0 0
709 1 0.874504 2.03767 38.793 9.43441 0 0 0
715 3 -0.798147 0.989723 37.5147 8.4577 0 0 0
717 3 -0.824664 3.64746 38.5282 8.45406 0 0 0
719 3 -0.810193 0.439958 39.0864 10.4388 0 0 0
727 3 -1.05606 3.27933 34.069 10.4846 0 0 0
729 3 -0.792688 2.60281 37.2669 10.4615 0 0 0
733 3 -1.05941 4.34131 35.3521 8.49626 0 0 0
752 4 0.333048 0.810974 37.5744 7.55114 0 0 0
754 4 0.357212 3.50295 38.4571 7.53657 0 0 0
756 4 0.37568 0.55383 39.4404 11.252 0 0 0
764 4 0.379667 3.33778 34.517 11.2739 0 0 0
766 4 0.361872 2.36501 36.9264 11.2869 0 0 0
770 4 0.32846 4.64188 35.2872 7.66934 0 0 0
399 3 -0.711946 9.17867 37.4793 5.72866 0 0 0
429 4 0.261853 8.56206 36.7656 5.86853 0 0 0
723 3 -1.02701 5.92328 35.087 10.5269 0 0 0
743 4 0.179928 5.78862 36.0832 5.68345 0 0 0
745 4 0.100537 7.73229 35.3158 6.39915 0 0 0
748 3 -0.590466 6.56377 35.1195 5.92514 0 0 0
788 1 0.738993 10.6826 37.1705 10.0451 0 0 0
790 2 1.24294 7.80324 35.465 8.91561 0 0 0
794 2 2.00187 7.81156 38.7907 9.4359 0 0 0
800 3 -1.06159 6.76548 37.5158 8.45396 0 0 0
802 3 -0.858417 9.4277 38.5315 8.45546 0 0 0
804 3 -1.05743 6.21694 39.0874 10.4419 0 0 0
812 3 -1.04701 9.05404 34.0685 10.4847 0 0 0
814 3 -0.934891 8.38104 37.2676 10.4633 0 0 0
818 3 -0.972025 10.1153 35.3552 8.49823 0 0 0
835 4 0.305172 6.58452 37.5722 7.55251 0 0 0
837 4 0.359541 9.28122 38.4573 7.5367 0 0 0
839 4 0.334628 6.32536 39.4404 11.2524 0 0 0
847 4 0.401089 9.11293 34.5172 11.2738 0 0 0
849 4 0.334904 8.14258 36.9246 11.2865 0 0 0
853 4 0.309361 10.4165 35.2876 7.66933 0 0 0
658 3 -0.559084 17.2692 36.1638 5.66389 -1 0 0
279 3 -0.721156 14.9516 37.4801 5.72898 0 0 0
310 4 0.270263 14.3348 36.7656 5.86877 0 0 0
619 2 1.35441 16.4582 37.1674 10.0461 0 0 0
620 2 1.26865 13.5785 35.4651 8.91552 0 0 0
624 2 2.00101 13.5864 38.7898 9.43587 0 0 0
630 3 -0.946198 12.5367 37.5148 8.45641 0 0 0
632 3 -1.07227 15.1949 38.5283 8.45131 0 0 0
634 3 -0.843004 11.9855 39.0848 10.4381 0 0 0
643 3 -0.932113 14.8248 34.0638 10.4832 0 0 0
644 3 -1.03157 14.15 37.2678 10.4647 0 0 0
649 3 -1.07823 15.8893 35.3518 8.49598 0 0 0
667 4 0.332408 12.3588 37.5723 7.55259 0 0 0
669 4 0.358061 15.0556 38.4568 7.53681 0 0 0
671 4 0.324875 12.0986 39.4403 11.2524 0 0 0
680 4 0.375743 14.8864 34.5167 11.2743 0 0 0
681 4 0.365604 13.9156 36.9249 11.2864 0 0 0
686 4 0.328372 16.1912 35.2875 7.66903 0 0 0
808 3 -0.895861 11.6945 35.0929 10.5258 0 0 0
828 4 0.10302 13.5078 35.3128 6.39912 0 0 0
831 3 -0.594878 12.3429 35.0968 5.92525 0 0 0
905 3 -0.693665 0.360634 4.32163 13.8821 0 0 0
908 3 -0.834803 2.00318 2.42835 12.5607 0 0 0
929 4 0.350947 0.377591 4.91476 11.3181 1 0 0
942 4 0.402363 0.807687 3.63004 13.4667 0 0 0
948 4 0.376443 2.85503 2.50678 12.7916 0 0 0
949 4 0.397678 1.82126 1.54802 12.8216 0 0 0
994 3 -0.756185 4.62978 1.38904 13.2807 0 0 0
995 3 -0.751793 3.3419 5.26457 13.2341 0 0 0
1025 4 0.369396 5.22544 2.14865 11.3249 0 0 0
1028 4 0.314503 5.17899 4.09217 13.5754 0 0 0
1035 4 0.286044 5.4406 0.879566 13.1063 0 0 0
1036 4 0.379738 4.00843 0.67361 13.4235 0 0 0
1122 1 0.703367 0.387131 4.36094 16.426 0 0 0
1330 3 -0.58727 1.20592 0.073371 13.2175 0 1 0
1371 3 -1.02289 2.21371 1.42302 16.0076 0 0 0
1372 3 -1.05894 4.86912 2.43538 16.0044 0 0 0
1379 3 -0.935001 2.68321 4.20727 15.9877 0 0 0
1395 4 0.389227 2.03221 1.47872 15.1063 0 0 0
1396 4 0.373219 4.72952 2.36375 15.0898 0 0 0
1403 4 0.370079 3.1038 4.26229 15.1725 0 0 0
990 3 -0.76952 6.13621 4.32195 13.8796 0 0 0
993 3 -0.832672 7.77609 2.42502 12.5617 0 0 0
1013 4 0.357422 6.1526 4.91489 11.3181 0 0 0
1027 4 0.390486 6.58278 3.62966 13.4659 0 0 0
1033 4 0.375124 8.62981 2.50593 12.7917 0 0 0
1034 4 0.296631 7.5973 1.54847 12.8206 0 0 0
1079 3 -0.737098 10.4022 1.3864 13.2818 0 0 0
1080 3 -0.756908 9.11717 5.26367 13.2341 0 0 0
1108 4 0.391378 11.0002 2.14807 11.3246 0 0 0
1111 4 0.312795 10.954 4.09215 13.5754 0 0 0
1118 4 0.260606 11.2142 0.879439 13.1064 0 0 0
1119 4 0.268764 9.78498 0.672674 13.4226 0 0 0
1182 2 1.34397 6.16328 4.36094 16.4238 0 0 0
1431 3 -1.0396 7.98854 1.42272 16.0071 0 0 0
1432 3 -1.06282 10.6441 2.4352 16.0044 0 0 0
1439 3 -1.04524 8.4645 4.20659 15.9863 0 0 0
1455 4 0.33239 7.80742 1.4792 15.1064 0 0 0
1456 4 0.363792 10.5035 2.36387 15.0899 0 0 0
1463 4 0.380067 8.87929 4.26228 15.173 0 0 0
909 3 -0.748482 16.1751 1.38708 13.2818 0 0 0
910 3 -0.746499 14.8917 5.26448 13.2341 0 0 0
941 4 0.3805 16.7755 2.14862 11.325 0 0 0
943 4 0.32597 16.7289 4.09249 13.5762 -1 0 0
950 4 0.365771 16.9909 0.879529 13.1056 0 0 0
951 4 0.262444 15.5579 0.672627 13.423 0 0 0
1075 3 -0.785957 11.9103 4.32222 13.8798 0 0 0
1078 3 -0.830143 13.5511 2.42488 12.5617 0 0 0
1096 4 0.348989 11.9276 4.91478 11.3181 0 0 0
1110 4 0.390192 12.3568 3.62965 13.4659 0 0 0
1116 4 0.372364 14.4048 2.506 12.7918 0 0 0
1117 4 0.273779 13.3725 1.5491 12.8204 0 0 0
1243 2 1.34434 11.938 4.36114 16.424 0 0 0
1310 3 -1.0414 13.7626 1.42271 16.0071 0 0 0
1311 3 -0.945759 16.4219 2.44057 16.0056 0 0 0
1318 3 -1.03866 14.2389 4.20655 15.9861 0 0 0
1335 4 0.324754 13.5824 1.47926 15.1065 0 0 0
1336 4 0.383572 16.2791 2.36447 15.0897 0 0 0
1343 4 0.398741 14.6546 4.26234 15.1731 0 0 0
1037 4 0.328894 2.50752 5.6726 13.2271 0 0 0
1038 4 0.373467 3.99835 5.88824 13.0292 0 0 0
1134 3 -1.04223 1.95468 7.36974 16.0804 0 0 0
1149 4 0.1646 1.24453 9.91535 13.2367 0 0 0
1150 4 0.182487 1.63384 7.75346 13.2492 0 0 0
1151 3 -0.638291 2.0061 8.93906 13.4716 0 0 0
1158 4 0.331477 1.79546 7.33494 15.1669 0 0 0
1162 4 0.317096 0.10016 9.12123 15.2225 0 0 0
1184 2 1.25386 3.26089 9.29901 16.468 0 0 0
1192 3 -0.79516 5.09279 6.41115 16.0144 0 0 0
1198 3 -0.825114 5.5716 9.18628 16.0522 0 0 0
1202 3 -0.85342 4.87928 7.43738 12.5591 0 0 0
1217 4 0.339676 4.95618 6.50455 15.1053 0 0 0
1229 4 0.314773 4.37641 8.0622 13.0108 0 0 0
1230 4 0.420671 5.72548 7.55066 12.8818 0 0 0
1609 3 -0.753346 4.63579 11.3145 13.2818 0 0 0
1650 4 0.377129 5.45104 10.8064 13.1053 0 0 0
1651 4 0.280832 4.01863 10.5992 13.4231 0 0 0
1120 4 0.39091 8.28141 5.67357 13.2271 0 0 0
1121 4 0.387494 9.77317 5.88842 13.0292 0 0 0
1194 3 -0.81492 7.72899 7.36834 16.0842 0 0 0
1209 3 -0.586376 6.95142 10.0012 13.2178 0 0 0
1210 3 -0.635781 9.07856 9.16826 13.9975 0 0 0
1211 3 -0.548522 7.37606 7.64996 13.2307 0 0 0
1212 5 0.511044 7.78082 8.93572 13.4702 0 0 0
1219 4 0.387582 7.56777 7.33461 15.1687 0 0 0
1223 4 0.355612 5.87584 9.11849 15.2224 0 0 0
1245 2 1.33669 9.03731 9.29965 16.4704 0 0 0
1253 3 -1.03434 10.8684 6.41256 16.0113 0 0 0
1259 3 -1.0457 11.3484 9.18611 16.0502 0 0 0
1263 3 -0.854536 10.66 7.43646 12.5589 0 0 0
1277 4 0.355253 10.7283 6.50183 15.1062 0 0 0
1289 4 0.390972 10.1533 8.06068 13.0107 0 0 0
1290 4 0.299442 11.4974 7.551 12.8817 0 0 0
1694 3 -0.74446 10.4139 11.3157 13.2809 0 0 0
1734 4 0.269594 11.2252 10.8068 13.1063 0 0 0
1735 4 0.381422 9.79252 10.6005 13.4235 0 0 0
952 4 0.3236 14.0566 5.67262 13.227 0 0 0
953 4 0.377589 15.5473 5.88825 13.0292 0 0 0
1124 2 1.27296 14.8113 9.29894 16.4682 0 0 0
1132 3 -0.926553 16.6453 6.40665 16.0126 -1 0 0
1138 3 -1.0639 17.1224 9.186 16.0497 -1 0 0
1142 3 -0.842767 16.4333 7.43761 12.56 0 0 0
1156 4 0.356653 16.5038 6.50097 15.106 -1 0 0
1168 4 0.306083 15.927 8.06173 13.0109 0 0 0