LAMMPS data file via write_data, version 12 Apr 2013, timestep = 1

1737 atoms
5 atom types

0 17.324 xlo xhi
0 39.708 ylo yhi
0 33.947 zlo zhi

Masses

1 26.982
2 40.078
3 15.994
4 1.0079
5 12.011

Atoms

374 4 0.398055 2.73693 2.27273 5.47429 0 0 0
991 3 -0.703321 3.6173 3.82148 5.00559 0 0 0
1029 4 0.299093 3.11476 4.44655 5.45562 0 0 0
1031 4 0.426171 4.46296 3.93433 5.32646 0 0 0
433 4 0.414555 8.51075 2.27299 5.47434 0 0 0
1076 3 -0.711479 9.39788 3.82048 5.00528 0 0 0
1112 4 0.39976 8.89155 4.44512 5.45547 0 0 0
1114 4 0.345401 10.2354 3.9348 5.32679 0 0 0
313 4 0.39658 14.2858 2.27283 5.47436 0 0 0
907 3 -0.712435 15.1713 3.8217 5.00615 0 0 0
945 4 0.301966 14.6655 4.44597 5.45577 0 0 0
947 4 0.303321 16.0093 3.9351 5.32696 0 0 0
1324 3 -0.700925 0.749592 8.7365 5.00814 0 0 0
1352 4 0.385118 1.60225 8.81814 5.2368 0 0 0
1354 4 0.319586 0.570113 7.86035 5.26569 0 0 0
1416 4 0.403189 4.18914 7.19152 5.55073 0 0 0
1385 3 -0.706172 6.52646 8.73974 5.00761 0 0 0
1412 4 0.38686 7.37759 8.81898 5.23655 0 0 0
1414 4 0.407687 6.34416 7.85992 5.26634 0 0 0
1476 4 0.322262 9.96342 7.19174 5.55194 0 0 0
1357 4 0.311257 15.7373 7.19149 5.55221 0 0 0
1445 3 -0.705687 12.2996 8.73652 5.00812 0 0 0
1472 4 0.386563 13.1522 8.81814 5.23684 0 0 0
1474 4 0.319094 12.1201 7.86035 5.26569 0 0 0
1422 4 0.416369 2.74668 12.2 5.47429 0 0 0
1606 3 -0.710217 3.63291 13.7476 5.00529 0 0 0
1644 4 0.395761 3.12651 14.3721 5.45549 0 0 0
1646 4 0.336729 4.47035 13.8617 5.32679 0 0 0
1482 4 0.399942 8.52081 12.1998 5.47436 0 0 0
1691 3 -0.708587 9.40632 13.7487 5.00618 0 0 0
1728 4 0.298327 8.90042 14.373 5.45572 0 0 0
1730 4 0.303104 10.2443 13.8621 5.32693 0 0 0
1362 4 0.397874 14.296 12.1998 5.47428 0 0 0
1522 3 -0.701234 15.1763 13.7485 5.0056 0 0 0
1560 4 0.298958 14.6738 14.3735 5.45561 0 0 0
1562 4 0.426593 16.022 13.8613 5.32646 0 0 0
1143 3 -0.702819 0.761465 18.6667 5.00762 0 0 0
1170 4 0.388355 1.61258 18.746 5.23655 0 0 0
1172 4 0.408766 0.579152 17.7869 5.26634 0 0 0
1235 4 0.29141 4.1981 17.1189 5.55188 0 0 0
1241 4 0.402339 2.75587 22.1278 5.47427 0 0 0
1203 3 -0.702907 6.53452 18.6633 5.00816 0 0 0
1231 4 0.387362 7.38726 18.7452 5.23684 0 0 0
1233 4 0.286707 6.35539 17.788 5.26557 0 0 0
1295 4 0.304934 9.97234 17.1185 5.55213 0 0 0
1301 4 0.415824 8.53069 22.128 5.47434 0 0 0
1175 4 0.404111 15.7481 17.1185 5.55073 0 0 0
1180 4 0.396096 14.3058 22.1277 5.47434 0 0 0
1264 3 -0.701227 12.3086 18.6635 5.00816 0 0 0
1291 4 0.387692 13.1613 18.7451 5.2368 0 0 0
1293 4 0.318507 12.1291 17.7873 5.26566 0 0 0
123 3 -0.702182 3.63742 23.6755 5.0056 0 0 0
161 4 0.304114 3.13472 24.3005 5.45559 0 0 0
163 4 0.422049 4.48271 23.7883 5.32644 0 0 0
486 4 0.286671 0.590363 27.715 5.26556 0 0 0
548 4 0.401597 4.20888 27.0456 5.55081 0 0 0
208 3 -0.714423 9.41806 23.6745 5.00514 0 0 0
245 4 0.392995 8.91002 24.2994 5.45584 0 0 0
247 4 0.304325 10.2541 23.7886 5.32681 0 0 0
546 4 0.409843 6.36327 27.7142 5.26638 0 0 0
608 4 0.291015 9.98244 27.0459 5.55187 0 0 0
39 3 -0.708515 15.1901 23.6757 5.00608 0 0 0
77 4 0.302698 14.6853 24.3002 5.45592 0 0 0
79 4 0.338439 16.029 23.789 5.32697 0 0 0
489 4 0.280715 15.7559 27.0456 5.55212 0 0 0
606 4 0.288059 12.1394 27.715 5.26559 0 0 0
456 3 -0.702025 0.769557 28.5903 5.00819 0 0 0
484 4 0.38136 1.62227 28.6722 5.2368 0 0 0
554 4 0.416963 2.76572 32.0549 5.47434 0 0 0
738 3 -0.710376 3.65279 33.6016 5.00527 0 0 0
778 4 0.341575 4.4894 33.7167 5.32682 0 0 0
517 3 -0.710051 6.54548 28.5937 5.00748 0 0 0
544 4 0.389288 7.39651 28.6729 5.23662 0 0 0
614 4 0.395721 8.54072 32.0547 5.47435 0 0 0
823 3 -0.709602 9.42537 33.6027 5.00619 0 0 0
861 4 0.300926 10.2634 33.7171 5.32692 0 0 0
494 4 0.402061 14.3149 32.0547 5.47433 0 0 0
577 3 -0.705929 12.3185 28.5903 5.00814 0 0 0
604 4 0.385812 13.1713 28.6722 5.23681 0 0 0
654 3 -0.704074 15.1963 33.6025 5.00562 0 0 0
694 4 0.420678 16.042 33.7163 5.32645 0 0 0
276 3 -0.702653 0.780356 38.5208 5.00766 0 0 0
303 4 0.395943 1.63157 38.6 5.23658 0 0 0
305 4 0.409472 0.598184 37.6409 5.26633 0 0 0
368 4 0.288951 4.21712 36.9729 5.55186 0 0 0
776 4 0.396463 3.14559 34.226 5.45545 0 0 0
336 3 -0.702957 6.55345 38.5174 5.00823 0 0 0
364 4 0.383682 7.40623 38.5992 5.23682 0 0 0
366 4 0.283157 6.37439 37.642 5.26557 0 0 0
427 4 0.310812 9.99137 36.9725 5.55221 0 0 0
859 4 0.294492 8.92035 34.227 5.45574 0 0 0
308 4 0.399068 15.7681 36.9725 5.55074 0 0 0
397 3 -0.703202 12.3286 38.5175 5.00812 0 0 0
423 4 0.383167 13.1812 38.5991 5.23684 0 0 0
425 4 0.320081 12.1491 37.6414 5.2657 0 0 0
692 4 0.295904 14.6937 34.2275 5.45563 0 0 0
333 3 -0.772955 4.87425 0.705664 6.32733 0 0 0
340 3 -0.722208 2.07977 1.64962 5.68262 0 0 0
358 4 0.399573 5.32112 0.0134795 5.91214 0 0 0
360 4 0.333616 3.91698 0.477249 6.02109 0 0 0
372 4 0.33848 1.24544 2.05747 5.67254 0 0 0
713 3 -0.814031 3.09274 0.345376 10.4329 0 1 0
731 3 -0.807561 1.46449 0.592213 8.43459 0 1 0
768 4 0.362018 1.88344 0.644286 7.6191 0 1 0
875 2 1.35634 1.96537 2.38357 10.0122 0 0 0
892 3 -1.0209 0.11935 5.30602 10.5268 1 0 0
894 3 -1.07013 0.692421 3.75414 8.52725 1 0 0
912 4 0.106713 1.92881 5.53185 6.3991 0 0 0
914 4 0.191927 0.374589 4.13645 5.69604 0 0 0
916 3 -0.594072 0.76392 5.31581 5.92526 0 0 0
931 4 0.297922 0.533411 3.71913 7.61293 1 0 0
954 2 1.31633 4.90187 0.746583 8.87009 0 0 0
964 2 2.00698 4.86184 4.04426 9.50796 0 0 0
974 3 -1.04691 3.83108 2.79781 8.45733 0 0 0
980 3 -1.0477 3.25027 4.28804 10.4845 0 0 0
986 3 -1.06872 4.31023 5.5708 8.49603 0 0 0
988 3 -1.04636 5.43769 2.50383 10.5007 0 0 0
1011 4 0.335771 3.69261 2.88573 7.55215 0 0 0
1017 4 0.382195 3.30876 4.73598 11.2739 0 0 0
1023 4 0.33559 4.61226 5.50555 7.66903 0 0 0
394 3 -0.693285 10.6477 0.705445 6.32977 0 0 0
401 3 -0.723737 7.85509 1.64868 5.68246 0 0 0
417 4 0.409355 11.095 0.0138746 5.91309 0 0 0
419 4 0.338349 9.69289 0.477537 6.02194 0 0 0
431 4 0.418544 7.01924 2.05845 5.67253 0 0 0
798 3 -0.948108 8.87199 0.345527 10.4322 0 1 0
816 3 -1.04604 7.24091 0.591456 8.43213 0 1 0
833 4 0.376738 9.15347 0.00131596 11.1997 0 1 0
851 4 0.381504 7.65654 0.647344 7.61911 0 1 0
960 2 1.378 7.74039 2.38335 10.0117 0 0 0
976 3 -1.02431 5.89324 5.30592 10.5268 0 0 0
978 3 -1.06673 6.46607 3.75392 8.52842 0 0 0
998 3 -0.641304 7.81552 5.55317 6.44374 0 0 0
1000 3 -0.503819 6.11569 4.03767 5.67659 0 0 0
1001 5 0.523648 6.5167 5.31976 5.91435 0 0 0
1015 4 0.372202 6.3092 3.71812 7.6149 0 0 0
1039 1 0.715715 10.6742 0.743183 8.87322 0 0 0
1049 2 2.00432 10.636 4.04431 9.50783 0 0 0
1059 3 -0.938227 9.6094 2.79157 8.45857 0 0 0
1065 3 -1.05827 9.02532 4.28806 10.4845 0 0 0
1071 3 -1.05038 10.0857 5.57086 8.49621 0 0 0
1073 3 -0.958118 11.2117 2.50055 10.4978 0 0 0
1094 4 0.354164 9.46672 2.8851 7.55205 0 0 0
1100 4 0.382117 9.08275 4.73598 11.2739 0 0 0
1106 4 0.354884 10.3871 5.50537 7.66937 0 0 0
274 3 -0.788643 16.4234 0.706124 6.3272 0 0 0
280 3 -0.721593 13.6298 1.64944 5.68242 0 0 0
298 4 0.406905 16.8701 0.0133279 5.91221 0 0 0
300 4 0.330586 15.466 0.477173 6.02114 0 0 0
311 4 0.369168 12.7945 2.05755 5.67267 0 0 0
628 3 -1.06014 14.6433 0.344118 10.4353 0 1 0
646 3 -0.945239 13.0105 0.592107 8.43356 0 1 0
665 4 0.337412 14.9277 0.00147543 11.2 0 1 0
683 4 0.358824 13.4309 0.647344 7.61865 0 1 0
870 2 1.30811 16.45 0.746243 8.87006 0 0 0
880 2 2.00173 16.4106 4.04431 9.50791 0 0 0
890 3 -1.0352 15.3807 2.79736 8.45709 0 0 0
896 3 -0.962497 14.7968 4.29051 10.4819 0 0 0
902 3 -0.957219 15.8542 5.57153 8.49702 0 0 0
904 3 -1.04824 16.9866 2.50394 10.5006 0 0 0
927 4 0.338223 15.2413 2.88585 7.55226 0 0 0
933 4 0.391616 14.8574 4.73649 11.2737 0 0 0
939 4 0.313327 16.1616 5.5053 7.66906 0 0 0
1045 2 1.39593 13.5145 2.38331 10.0114 0 0 0
1061 3 -0.9406 11.6706 5.30657 10.5252 0 0 0
1063 3 -0.948551 12.2456 3.75996 8.52847 0 0 0
1081 4 0.17526 13.4771 5.53319 6.39917 0 0 0
1084 3 -0.498791 12.3204 5.32873 5.92816 0 0 0
1098 4 0.348761 12.0838 3.71954 7.61259 0 0 0
956 2 1.36858 4.87958 7.38684 10.046 0 0 0
958 2 1.23652 1.99929 5.684 8.91573 0 0 0
962 2 2.01047 2.00769 9.00929 9.43584 0 0 0
966 3 -1.05102 3.0644 10.2713 10.4353 0 0 0
968 3 -1.05279 0.961599 7.73475 8.45396 0 0 0
970 3 -1.06248 3.61706 8.74734 8.45132 0 0 0
972 3 -1.05318 0.412919 9.30638 10.442 0 0 0
982 3 -1.04267 2.57045 7.48674 10.4646 0 0 0
984 3 -1.0551 1.43744 10.5186 8.43236 0 0 0
996 3 -0.550404 5.69104 6.38318 5.66374 0 0 0
1003 4 0.345729 3.34873 9.92847 11.2 0 0 0
1005 4 0.322104 0.780405 7.79017 7.5525 0 0 0
1007 4 0.359762 3.47658 8.67581 7.53684 0 0 0
1009 4 0.322158 0.521307 9.65947 11.2523 0 0 0
1019 4 0.331888 2.33784 7.14378 11.2863 0 0 0
1021 4 0.364783 1.85235 10.5743 7.61899 0 0 0
1382 3 -0.778379 4.88326 10.6331 6.32727 0 0 0
1387 3 -0.717754 3.37357 7.69916 5.72898 0 0 0
1406 4 0.409346 5.33024 9.94027 5.91215 0 0 0
1408 4 0.334172 3.92685 10.4042 6.02112 0 0 0
1418 4 0.274704 2.75676 6.98459 5.86877 0 0 0
1569 2 1.35411 4.91112 10.6731 8.87021 0 0 0
1041 2 1.36961 10.6543 7.38676 10.0459 0 0 0
1043 2 1.32334 7.77477 5.68434 8.91776 0 0 0
1047 2 2.01332 7.7825 9.00944 9.43611 0 0 0
1051 3 -0.928489 8.8369 10.2766 10.4337 0 0 0
1053 3 -1.04747 6.73528 7.73567 8.4546 0 0 0
1055 3 -1.06925 9.39112 8.74738 8.45142 0 0 0
1057 3 -1.04349 6.18738 9.30589 10.4413 0 0 0
1067 3 -1.05188 8.34583 7.48652 10.464 0 0 0
1069 3 -0.961273 7.21328 10.522 8.43505 0 0 0
1086 4 0.345431 9.12349 9.92895 11.2006 0 0 0
1088 4 0.353138 6.55537 7.78954 7.55224 0 0 0
1090 4 0.363204 9.25151 8.6758 7.53684 0 0 0
1092 4 0.408466 6.29513 9.65937 11.2518 0 0 0
1102 4 0.392246 8.11207 7.14381 11.2855 0 0 0
1104 4 0.368119 7.62763 10.5747 7.61908 0 0 0
1442 3 -0.783048 10.6583 10.6332 6.32726 0 0 0
1447 3 -0.722316 9.15151 7.70065 5.72789 0 0 0
1466 4 0.404333 11.1052 9.94033 5.91219 0 0 0
1468 4 0.334385 9.70184 10.4042 6.02115 0 0 0
1478 4 0.384157 8.53055 6.9854 5.8692 0 0 0
1654 2 1.34238 10.6852 10.6731 8.87019 0 0 0
872 2 1.38712 16.4293 7.38689 10.0458 0 0 0
873 1 0.621745 13.5502 5.68481 8.92054 0 0 0
877 2 2.01091 13.5579 9.00912 9.43567 0 0 0
881 3 -1.05001 14.6134 10.2712 10.4353 0 0 0
883 3 -0.947161 12.5133 7.72877 8.45551 0 0 0
885 3 -1.04539 15.1663 8.74786 8.45115 0 0 0
887 3 -1.05894 11.962 9.30629 10.442 0 0 0
897 3 -0.954237 14.1192 7.48322 10.4619 0 0 0
899 3 -1.05999 12.9864 10.5186 8.43235 0 0 0
918 4 0.341514 14.8987 9.92849 11.2 0 0 0
920 4 0.3286 12.3307 7.78947 7.55236 0 0 0
922 4 0.370245 15.0265 8.67565 7.53691 0 0 0
924 4 0.323319 12.0703 9.65947 11.2523 0 0 0
934 4 0.345769 13.8867 7.14326 11.286 0 0 0
936 4 0.363862 13.4014 10.5742 7.61899 0 0 0
1322 3 -0.764712 16.4331 10.6328 6.32753 0 0 0
1327 3 -0.706203 14.9247 7.69825 5.72855 0 0 0
1347 4 0.408191 16.8802 9.94039 5.91216 0 0 0
1349 4 0.334178 15.4759 10.4043 6.02113 0 0 0
1359 4 0.28403 14.3071 6.9847 5.86865 0 0 0
1485 2 1.33973 16.4601 10.6732 8.87007 0 0 0
1237 4 0.382566 2.7655 16.9124 5.86919 0 0 0
1389 3 -0.720738 2.09015 11.5757 5.68255 0 0 0
1420 4 0.42255 1.25425 11.9855 5.67249 0 0 0
1490 2 1.37329 1.97556 12.3102 10.0117 0 0 0
1507 3 -1.01833 0.129335 15.2329 10.5268 1 0 0
1509 3 -1.06278 0.701058 13.6809 8.52844 1 0 0
1527 3 -0.641512 2.05053 15.4802 6.44372 0 0 0
1529 3 -0.501018 0.350686 13.9647 5.67658 0 0 0
1531 5 0.524662 0.751705 15.2468 5.91436 0 0 0
1546 4 0.374355 0.54421 13.6451 7.6149 1 0 0
1573 2 1.32915 2.00984 15.6113 8.91771 0 0 0
1579 2 2.00077 4.87095 13.9715 9.50806 0 0 0
1589 3 -1.0433 3.8413 12.7246 8.45739 0 0 0
1595 3 -1.05508 3.2603 14.2149 10.4847 0 0 0
1601 3 -1.05644 4.3214 15.4981 8.49623 0 0 0
1603 3 -0.93544 5.454 12.4307 10.4992 0 0 0
1611 4 0.181071 5.76863 16.2292 5.68344 0 0 0
1626 4 0.345771 3.70138 12.8128 7.55221 0 0 0
1632 4 0.383754 3.31876 14.663 11.2739 0 0 0
1638 4 0.325505 4.62185 15.4322 7.66932 0 0 0
1297 4 0.265873 8.5421 16.9117 5.86851 0 0 0
1449 3 -0.71805 7.86475 11.5764 5.68245 0 0 0
1480 4 0.36687 7.02948 11.9846 5.67261 0 0 0
1575 1 0.711016 7.7485 12.3106 10.0106 0 0 0
1591 3 -1.01358 5.90291 15.2333 10.5272 0 0 0
1593 3 -0.95284 6.47946 13.678 8.53075 0 0 0
1613 4 0.105829 7.71228 15.4618 6.39913 0 0 0
1616 3 -0.590372 6.54473 15.2655 5.92517 0 0 0
1630 4 0.317281 6.31864 13.6458 7.61241 0 0 0
1658 2 1.25147 7.78456 15.6108 8.9154 0 0 0
1664 2 2.00835 10.6459 13.9712 9.50808 0 0 0
1674 3 -0.951505 9.61209 12.7241 8.45976 0 0 0
1680 3 -0.931167 9.03075 14.2098 10.4832 0 0 0
1686 3 -1.06772 10.0954 15.498 8.49569 0 0 0
1688 3 -1.03288 11.2223 12.4309 10.5008 0 0 0
1710 4 0.326365 9.476 12.8127 7.55215 0 0 0
1716 4 0.373627 9.0924 14.6626 11.2743 0 0 0
1722 4 0.315377 10.3972 15.4323 7.66938 0 0 0
1177 4 0.274728 14.3158 16.9116 5.86876 0 0 0
1328 3 -0.721312 13.6397 11.5766 5.68253 0 0 0
1360 4 0.341082 12.8045 11.9844 5.67258 0 0 0
1488 2 1.23984 13.5582 15.6111 8.91574 0 0 0
1495 2 2.01589 16.4208 13.9714 9.50803 0 0 0
1505 3 -1.0427 15.39 12.7248 8.45736 0 0 0
1511 3 -1.04735 14.8092 14.215 10.4845 0 0 0
1517 3 -1.0667 15.8702 15.4978 8.496 0 0 0
1519 3 -1.04045 16.9967 12.4308 10.5006 0 0 0
1526 3 -0.549424 17.25 16.3102 5.66372 -1 0 0
1542 4 0.33637 15.2516 12.8127 7.55215 0 0 0
1548 4 0.385935 14.8678 14.663 11.2739 0 0 0
1554 4 0.337759 16.1723 15.4326 7.66904 0 0 0
1660 2 1.36291 13.5246 12.3101 10.0118 0 0 0
1676 3 -1.01714 11.6783 15.233 10.5269 0 0 0
1678 3 -1.0648 12.2514 13.6811 8.52726 0 0 0
1696 4 0.104946 13.4878 15.4588 6.39911 0 0 0
1698 4 0.193562 11.9336 14.0634 5.69602 0 0 0
1700 3 -0.593162 12.3239 15.2428 5.92526 0 0 0
1714 4 0.298367 12.0924 13.6461 7.61294 0 0 0
7 2 1.36654 1.98557 22.2371 10.012 0 0 0
86 2 1.32021 4.91961 20.6004 8.87003 0 0 0
106 3 -1.04844 3.85012 22.6518 8.45734 0 0 0
120 3 -1.04763 5.45667 22.3579 10.5006 0 0 0
1200 3 -0.771179 4.89324 20.5599 6.32737 0 0 0
1205 3 -0.719983 3.38675 17.6276 5.72793 0 0 0
1207 3 -0.722131 2.0998 21.5035 5.68258 0 0 0
1225 4 0.404493 5.34024 19.8674 5.91214 0 0 0
1227 4 0.33317 3.93684 20.3313 6.02111 0 0 0
1239 4 0.366373 1.26443 21.9116 5.67252 0 0 0
1571 2 1.34884 4.88899 17.3134 10.046 0 0 0
1577 2 2.02068 2.01771 18.9362 9.43588 0 0 0
1581 3 -1.0507 3.07472 20.1982 10.435 0 0 0
1583 3 -1.04506 0.970242 17.6625 8.45462 0 0 0
1585 3 -1.06497 3.62617 18.6744 8.45131 0 0 0
1587 3 -1.05511 0.422588 19.2335 10.4411 0 0 0
1597 3 -1.04831 2.58074 17.4134 10.464 0 0 0
1599 3 -1.05543 1.44741 20.4456 8.43236 0 0 0
1618 4 0.350914 3.35859 19.8555 11.2002 0 0 0
1620 4 0.355335 0.790372 17.7166 7.55224 0 0 0
1622 4 0.36045 3.48647 18.6028 7.53685 0 0 0
1624 4 0.385556 0.530017 19.5861 11.252 0 0 0
1634 4 0.391372 2.34707 17.0708 11.2855 0 0 0
1636 4 0.363665 1.86237 20.5012 7.619 0 0 0
92 2 1.38074 7.75942 22.2378 10.0116 0 0 0
171 2 1.32445 10.6954 20.6006 8.87009 0 0 0
191 3 -1.02545 9.62578 22.6512 8.45709 0 0 0
205 3 -1.04282 11.2316 22.3579 10.5007 0 0 0
1261 3 -0.783954 10.6682 20.5601 6.32726 0 0 0
1266 3 -0.71344 9.15974 17.6253 5.72877 0 0 0
1268 3 -0.724811 7.87511 21.5027 5.68256 0 0 0
1285 4 0.403708 11.1152 19.8673 5.91217 0 0 0
1287 4 0.332746 9.71087 20.3313 6.02116 0 0 0
1299 4 0.418981 7.03927 21.9124 5.67249 0 0 0
1656 2 1.35958 10.6647 17.3136 10.0461 0 0 0
1662 1 0.856043 7.79382 18.9391 9.43431 0 0 0
1666 3 -0.816063 8.84757 20.1995 10.4331 0 0 0
1668 3 -0.806857 6.74489 17.66 8.45711 0 0 0
1670 3 -0.820884 9.40244 18.6741 8.45404 0 0 0
1672 3 -0.813259 6.19536 19.2322 10.4396 0 0 0
1682 3 -0.786532 8.35749 17.4132 10.4621 0 0 0
1684 3 -0.811511 7.22058 20.4461 8.43465 0 0 0
1702 4 0.345028 9.13223 19.8523 11.1997 0 0 0
1704 4 0.288105 6.567 17.72 7.55137 0 0 0
1706 4 0.353703 9.25801 18.6032 7.53659 0 0 0
1708 4 0.327588 6.30901 19.5868 11.2526 0 0 0
1718 4 0.304697 8.11984 17.0723 11.2877 0 0 0
1720 4 0.366216 7.63847 20.4984 7.61906 0 0 0
2 2 1.34319 16.4701 20.6002 8.87006 0 0 0
22 3 -1.03961 15.4001 22.6517 8.45728 0 0 0
36 3 -1.03819 17.0067 22.3578 10.5006 0 0 0
177 2 1.37075 13.5345 22.2371 10.0118 0 0 0
1141 3 -0.772866 16.4422 20.5601 6.32749 0 0 0
1146 3 -0.714313 14.9326 17.6261 5.729 0 0 0
1147 3 -0.719111 13.6488 21.5036 5.6825 0 0 0
1165 4 0.411962 16.8892 19.8673 5.91214 0 0 0
1167 4 0.336755 15.4859 20.3312 6.02112 0 0 0
1178 4 0.341844 12.8135 21.9114 5.67259 0 0 0
1487 2 1.37806 16.4385 17.3137 10.046 0 0 0
1492 2 2.01711 13.5666 18.9363 9.43594 0 0 0
1496 3 -1.04809 14.6235 20.1983 10.4353 0 0 0
1498 3 -1.05248 12.5205 17.6619 8.4539 0 0 0
1500 3 -1.0615 15.1761 18.6743 8.45136 0 0 0
1502 3 -1.05024 11.9719 19.2334 10.442 0 0 0
1512 3 -1.0393 14.1305 17.4137 10.4645 0 0 0
1514 3 -1.05519 12.9964 20.4456 8.43231 0 0 0
1533 4 0.345236 14.9087 19.8555 11.2 0 0 0
1535 4 0.316115 12.3395 17.7171 7.55248 0 0 0
1537 4 0.362327 15.0356 18.6028 7.53683 0 0 0
1539 4 0.327049 12.0803 19.5864 11.2523 0 0 0
1549 4 0.352267 13.8968 17.0709 11.2865 0 0 0
1551 4 0.363277 13.4114 20.5012 7.61899 0 0 0
24 3 -1.02009 0.138373 25.1601 10.5269 1 0 0
26 3 -1.06463 0.711584 23.6082 8.5274 1 0 0
45 4 0.105038 1.94733 25.3888 6.3991 0 0 0
48 3 -0.584841 0.779747 25.1925 5.92516 0 0 0
63 4 0.327532 0.553409 23.5741 7.61265 1 0 0
88 2 1.41073 4.89941 27.2409 10.046 0 0 0
90 2 1.23369 2.01933 25.5381 8.91577 0 0 0
96 2 1.99957 4.8809 23.8986 9.50796 0 0 0
100 3 -1.05458 0.980562 27.5887 8.45395 0 0 0
112 3 -1.04983 3.2693 24.142 10.4845 0 0 0
114 3 -1.04507 2.59036 27.3408 10.4646 0 0 0
118 3 -1.06123 4.32962 25.4246 8.49581 0 0 0
128 3 -0.550358 5.70954 26.238 5.66345 0 0 0
137 4 0.306677 0.800448 27.6442 7.55251 0 0 0
143 4 0.334263 3.71157 22.7407 7.55215 0 0 0
149 4 0.380252 3.32775 24.59 11.2739 0 0 0
151 4 0.330899 2.35688 26.9978 11.2863 0 0 0
155 4 0.350147 4.63248 25.3606 7.66915 0 0 0
519 3 -0.721964 3.39259 27.5531 5.72893 0 0 0
550 4 0.268178 2.77585 26.8386 5.86878 0 0 0
43 4 0.180701 0.00368224 26.1562 5.68344 0 0 0
108 3 -0.938361 5.91562 25.1605 10.5251 0 0 0
110 3 -0.961188 6.4899 23.613 8.52956 0 0 0
129 3 -0.554745 7.82285 25.4057 6.44418 0 0 0
131 3 -0.506711 6.13467 23.8905 5.67628 0 0 0
133 5 0.530739 6.54989 25.1762 5.92046 0 0 0
147 4 0.382442 6.32868 23.5738 7.61482 0 0 0
173 2 1.3742 10.6734 27.2409 10.0459 0 0 0
175 1 0.681551 7.79413 25.5385 8.91607 0 0 0
181 2 2.00366 10.6555 23.8981 9.50785 0 0 0
185 3 -0.925519 6.75856 27.583 8.45587 0 0 0
197 3 -0.960867 9.04178 24.1446 10.4819 0 0 0
199 3 -0.960491 8.36453 27.3369 10.4612 0 0 0
203 3 -0.946291 10.1001 25.4257 8.49757 0 0 0
221 4 0.376153 6.57458 27.6429 7.55219 0 0 0
227 4 0.355333 9.48624 22.741 7.5523 0 0 0
233 4 0.391329 9.1024 24.5905 11.2737 0 0 0
235 4 0.405992 8.13184 26.9972 11.2852 0 0 0
239 4 0.322292 10.4063 25.3602 7.66904 0 0 0
579 3 -0.717464 9.17183 27.5547 5.7277 0 0 0
610 4 0.388567 8.54976 26.8387 5.86977 0 0 0
213 4 0.183292 11.5515 26.1543 5.68249 0 0 0
4 2 1.36117 16.4483 27.2408 10.0458 0 0 0
5 2 1.25635 13.5684 25.5381 8.91545 0 0 0
12 2 2.02379 16.4308 23.8983 9.50796 0 0 0
15 3 -1.05132 12.5294 27.5889 8.45396 0 0 0
28 3 -1.04502 14.8192 24.142 10.4845 0 0 0
29 3 -1.03857 14.1395 27.3407 10.4645 0 0 0
34 3 -1.06425 15.8794 25.4251 8.49574 0 0 0
52 4 0.312729 12.3495 27.6442 7.5525 0 0 0
59 4 0.333081 15.2605 22.7407 7.5522 0 0 0
65 4 0.38491 14.8778 24.59 11.2739 0 0 0
66 4 0.351288 13.9068 26.9979 11.2865 0 0 0
71 4 0.309214 16.1812 25.3602 7.6694 0 0 0
193 3 -1.02655 11.6883 25.16 10.5267 0 0 0
195 3 -1.06359 12.2614 23.6083 8.52732 0 0 0
216 4 0.194647 11.9408 23.9915 5.69504 0 0 0
217 3 -0.6275 12.313 25.178 5.91796 0 0 0
231 4 0.304728 12.1025 23.5741 7.61293 0 0 0
459 3 -0.710235 14.944 27.5523 5.72867 0 0 0
491 4 0.279075 14.3269 26.8382 5.86866 0 0 0
94 2 2.0038 2.02763 28.8636 9.43578 0 0 0
98 3 -0.959475 3.08683 30.1261 10.4326 0 0 0
102 3 -0.95754 3.63992 28.6067 8.4525 0 0 0
104 3 -1.05506 0.432018 29.1603 10.4421 0 0 0
116 3 -1.04895 1.45696 30.3725 8.43224 0 0 0
135 4 0.351411 3.3693 29.7825 11.1998 0 0 0
139 4 0.367885 3.49703 28.5305 7.53665 0 0 0
141 4 0.318443 0.540284 29.5135 11.2523 0 0 0
153 4 0.383094 1.87159 30.4283 7.61909 0 0 0
514 3 -0.691137 4.90253 30.4865 6.32982 0 0 0
521 3 -0.722148 2.11011 31.4297 5.68247 0 0 0
538 4 0.411533 5.35013 29.7948 5.91302 0 0 0
540 4 0.340651 3.94682 30.2586 6.02197 0 0 0
552 4 0.419574 1.27425 31.8394 5.67253 0 0 0
622 2 1.38034 1.99439 32.1644 10.0115 0 0 0
641 3 -1.06547 0.720917 33.5349 8.5284 1 0 0
662 3 -0.508759 0.370622 33.8186 5.67656 0 0 0
678 4 0.37072 0.563256 33.5001 7.61491 1 0 0
701 1 0.687848 4.92918 30.5269 8.87217 0 0 0
711 2 2.0038 4.89092 33.8252 9.50782 0 0 0
721 3 -0.933823 3.86336 32.5725 8.4586 0 0 0
735 3 -0.957792 5.46558 32.2817 10.4978 0 0 0
758 4 0.35584 3.72171 32.6671 7.55204 0 0 0
179 2 2.0093 7.80172 28.8629 9.43576 0 0 0
183 3 -1.05396 8.85866 30.1251 10.4349 0 0 0
187 3 -1.05379 9.41133 28.602 8.45119 0 0 0
189 3 -0.960568 6.20416 29.1631 10.4382 0 0 0
201 3 -0.943091 7.22515 30.3731 8.43369 0 0 0
219 4 0.352567 9.14364 29.7826 11.2001 0 0 0
223 4 0.370146 9.27144 28.5296 7.5369 0 0 0
225 4 0.390483 6.31468 29.5136 11.2518 0 0 0
237 4 0.355832 7.64589 30.4283 7.61857 0 0 0
574 3 -0.787123 10.6782 30.4872 6.3273 0 0 0
581 3 -0.721975 7.88388 31.4305 5.68246 0 0 0
598 4 0.401079 11.1242 29.7943 5.91216 0 0 0
600 4 0.328376 9.72088 30.2582 6.02115 0 0 0
612 4 0.370111 7.04845 31.8386 5.67263 0 0 0
707 2 1.38347 7.7695 32.164 10.0119 0 0 0
725 3 -1.05527 6.49677 33.5359 8.5273 0 0 0
762 4 0.33529 6.33737 33.5009 7.61272 0 0 0
786 2 1.34119 10.7051 30.5272 8.87031 0 0 0
796 2 1.99793 10.6658 33.8256 9.50832 0 0 0
806 3 -1.05577 9.63529 32.5789 8.45731 0 0 0
820 3 -0.935208 11.248 32.2846 10.4992 0 0 0
841 4 0.323511 9.49646 32.6677 7.55218 0 0 0
9 2 2.01721 13.5765 28.8634 9.43601 0 0 0
13 3 -0.928311 14.6307 30.1307 10.4339 0 0 0
17 3 -1.06279 15.1861 28.6012 8.45137 0 0 0
19 3 -1.04513 11.9816 29.1598 10.4421 0 0 0
31 3 -0.962068 13.0072 30.376 8.43502 0 0 0
50 4 0.33922 14.9175 29.7829 11.2004 0 0 0
54 4 0.358261 15.0455 28.5299 7.53687 0 0 0
56 4 0.357928 12.0905 29.5136 11.2523 0 0 0
68 4 0.368025 13.4217 30.4287 7.61908 0 0 0
454 3 -0.766563 16.4522 30.4869 6.32732 0 0 0
460 3 -0.714335 13.6587 31.4306 5.68244 0 0 0
479 4 0.405946 16.8992 29.7944 5.91215 0 0 0
481 4 0.337112 15.4958 30.2583 6.02112 0 0 0
492 4 0.345892 12.8235 31.8384 5.67262 0 0 0
617 2 1.35586 16.4792 30.5271 8.87012 0 0 0
627 2 1.99753 16.4399 33.8251 9.50805 0 0 0
637 3 -0.948812 15.4069 32.5781 8.4598 0 0 0
651 3 -1.03482 17.0173 32.2849 10.5009 0 0 0
674 4 0.334264 15.2701 32.6676 7.55214 0 0 0
792 1 0.710184 13.5435 32.1646 10.0106 0 0 0
810 3 -0.955926 12.2735 33.532 8.53071 0 0 0
830 4 0.194545 11.9536 33.9174 5.69603 0 0 0
845 4 0.292549 12.1126 33.5008 7.61269 0 0 0
750 4 0.355706 3.37715 39.7064 11.1999 0 0 0
338 3 -0.721539 3.40678 37.4816 5.72798 0 0 0
370 4 0.387252 2.78555 36.7665 5.86918 0 0 0
639 3 -1.02627 0.148081 35.0868 10.5269 1 0 0
660 3 -0.639832 2.07102 35.3345 6.44407 0 0 0
663 5 0.51958 0.769959 35.1009 5.91359 0 0 0
703 2 1.34301 4.9086 37.1677 10.0461 0 0 0
705 2 1.32092 2.02897 35.465 8.91789 0 0 0
709 1 0.875003 2.03768 38.793 9.43441 0 0 0
715 3 -0.797382 0.989719 37.5147 8.45769 0 0 0
717 3 -0.824172 3.64747 38.5282 8.45406 0 0 0
719 3 -0.810874 0.439948 39.0864 10.4388 0 0 0
727 3 -1.05601 3.27933 34.069 10.4846 0 0 0
729 3 -0.791973 2.60282 37.2669 10.4615 0 0 0
733 3 -1.05963 4.34131 35.3521 8.49626 0 0 0
752 4 0.333444 0.810976 37.5744 7.55114 0 0 0
754 4 0.357473 3.50294 38.4571 7.53657 0 0 0
756 4 0.374774 0.553831 39.4404 11.252 0 0 0
764 4 0.379683 3.33778 34.517 11.2739 0 0 0
766 4 0.362186 2.365 36.9264 11.2869 0 0 0
770 4 0.328348 4.64188 35.2872 7.66934 0 0 0
399 3 -0.711187 9.17867 37.4793 5.72866 0 0 0
429 4 0.262179 8.56206 36.7656 5.86853 0 0 0
723 3 -1.02707 5.92328 35.087 10.5269 0 0 0
743 4 0.17962 5.78862 36.0832 5.68345 0 0 0
745 4 0.100533 7.73229 35.3158 6.39915 0 0 0
748 3 -0.590494 6.56377 35.1195 5.92514 0 0 0
788 1 0.739376 10.6826 37.1704 10.0452 0 0 0
790 2 1.24328 7.80325 35.465 8.91561 0 0 0
794 2 2.00235 7.81155 38.7906 9.4359 0 0 0
800 3 -1.06107 6.76547 37.5158 8.45396 0 0 0
802 3 -0.859305 9.42771 38.5315 8.45546 0 0 0
804 3 -1.05719 6.21694 39.0874 10.4419 0 0 0
812 3 -1.04697 9.05404 34.0685 10.4847 0 0 0
814 3 -0.933862 8.38104 37.2676 10.4633 0 0 0
818 3 -0.971291 10.1153 35.3552 8.49822 0 0 0
835 4 0.305361 6.58453 37.5722 7.55251 0 0 0
837 4 0.35936 9.28121 38.4573 7.5367 0 0 0
839 4 0.33434 6.32536 39.4404 11.2524 0 0 0
847 4 0.401209 9.11293 34.5172 11.2738 0 0 0
849 4 0.335338 8.14258 36.9246 11.2865 0 0 0
853 4 0.309785 10.4165 35.2876 7.66933 0 0 0
658 3 -0.558705 17.2692 36.1638 5.66389 -1 0 0
279 3 -0.721409 14.9516 37.4801 5.72898 0 0 0
310 4 0.270909 14.3348 36.7656 5.86877 0 0 0
619 2 1.35524 16.4582 37.1674 10.0461 0 0 0
620 2 1.27025 13.5785 35.4651 8.91552 0 0 0
624 2 1.9984 13.5864 38.7898 9.43587 0 0 0
630 3 -0.946744 12.5367 37.5148 8.45641 0 0 0
632 3 -1.07329 15.1949 38.5283 8.45131 0 0 0
634 3 -0.844681 11.9855 39.0848 10.4381 0 0 0
643 3 -0.932176 14.8248 34.0637 10.4832 0 0 0
644 3 -1.03197 14.15 37.2679 10.4647 0 0 0
649 3 -1.07777 15.8893 35.3517 8.49598 0 0 0
667 4 0.331845 12.3589 37.5723 7.55258 0 0 0
669 4 0.357084 15.0556 38.4568 7.53682 0 0 0
671 4 0.323579 12.0986 39.4403 11.2524 0 0 0
680 4 0.375841 14.8864 34.5167 11.2743 0 0 0
681 4 0.365944 13.9156 36.9249 11.2864 0 0 0
686 4 0.328505 16.1912 35.2875 7.66903 0 0 0
808 3 -0.895122 11.6945 35.0929 10.5258 0 0 0
828 4 0.103417 13.5078 35.3128 6.39912 0 0 0
831 3 -0.594293 12.3429 35.0968 5.92525 0 0 0
905 3 -0.692184 0.360631 4.32162 13.8821 0 0 0
908 3 -0.835789 2.00316 2.42834 12.5607 0 0 0
929 4 0.351235 0.377594 4.91478 11.3181 1 0 0
942 4 0.401887 0.807695 3.63005 13.4667 0 0 0
948 4 0.378226 2.85503 2.50678 12.7916 0 0 0
949 4 0.397027 1.82127 1.54802 12.8216 0 0 0
994 3 -0.753241 4.62978 1.38903 13.2807 0 0 0
995 3 -0.750208 3.34187 5.26457 13.2341 0 0 0
1025 4 0.371704 5.22544 2.14866 11.3249 0 0 0
1028 4 0.316656 5.17901 4.09219 13.5754 0 0 0
1035 4 0.287468 5.4406 0.879577 13.1063 0 0 0
1036 4 0.38049 4.00843 0.67362 13.4236 0 0 0
1122 1 0.709419 0.38713 4.36093 16.426 0 0 0
1330 3 -0.588366 1.20592 0.0733769 13.2175 0 1 0
1371 3 -1.02074 2.21369 1.423 16.0076 0 0 0
1372 3 -1.05891 4.86915 2.43542 16.0044 0 0 0
1379 3 -0.932484 2.68318 4.20729 15.9877 0 0 0
1395 4 0.390615 2.03222 1.47873 15.1063 0 0 0
1396 4 0.374477 4.72952 2.36374 15.0898 0 0 0
1403 4 0.37347 3.10382 4.26233 15.1725 0 0 0
990 3 -0.768998 6.13624 4.32192 13.8798 0 0 0
993 3 -0.83358 7.7761 2.42503 12.5617 0 0 0
1013 4 0.356522 6.15258 4.91488 11.3181 0 0 0
1027 4 0.389015 6.58276 3.62967 13.4659 0 0 0
1033 4 0.373658 8.62981 2.50592 12.7917 0 0 0
1034 4 0.297695 7.59729 1.54847 12.8206 0 0 0
1079 3 -0.738339 10.4022 1.3864 13.2818 0 0 0
1080 3 -0.758061 9.11718 5.26363 13.2341 0 0 0
1108 4 0.390908 11.0002 2.14807 11.3246 0 0 0
1111 4 0.311117 10.954 4.09214 13.5754 0 0 0
1118 4 0.259089 11.2142 0.879434 13.1064 0 0 0
1119 4 0.26854 9.78498 0.672675 13.4226 0 0 0
1182 2 1.34892 6.16317 4.3612 16.4238 0 0 0
1431 3 -1.03845 7.98853 1.42276 16.0071 0 0 0
1432 3 -1.06278 10.6441 2.43521 16.0044 0 0 0
1439 3 -1.04552 8.46445 4.20657 15.9864 0 0 0
1455 4 0.333468 7.80742 1.47918 15.1064 0 0 0
1456 4 0.362701 10.5035 2.36387 15.0899 0 0 0
1463 4 0.379484 8.8793 4.2623 15.173 0 0 0
909 3 -0.750723 16.1751 1.38709 13.2818 0 0 0
910 3 -0.751533 14.8917 5.26449 13.2341 0 0 0
941 4 0.377986 16.7755 2.14861 11.325 0 0 0
943 4 0.324662 16.7289 4.0925 13.5763 -1 0 0
950 4 0.36427 16.9909 0.87952 13.1056 0 0 0
951 4 0.261822 15.5579 0.672625 13.423 0 0 0
1075 3 -0.787664 11.9103 4.32222 13.8798 0 0 0
1078 3 -0.831687 13.5511 2.4249 12.5618 0 0 0
1096 4 0.351873 11.928 4.91479 11.318 0 0 0
1110 4 0.389442 12.3568 3.62966 13.4659 0 0 0
1116 4 0.370606 14.4048 2.50599 12.7918 0 0 0
1117 4 0.273179 13.3725 1.54908 12.8204 0 0 0
1243 2 1.34128 11.9381 4.36112 16.424 0 0 0
1310 3 -1.04119 13.7626 1.42274 16.007 0 0 0
1311 3 -0.944801 16.4219 2.44056 16.0056 0 0 0
1318 3 -1.04228 14.2389 4.20655 15.9861 0 0 0
1335 4 0.323398 13.5824 1.47925 15.1065 0 0 0
1336 4 0.382255 16.2791 2.36448 15.0897 0 0 0
1343 4 0.395301 14.6546 4.26233 15.1731 0 0 0
1037 4 0.328144 2.50751 5.6726 13.2271 0 0 0
1038 4 0.37395 3.99837 5.88823 13.0292 0 0 0
1134 3 -1.03985 1.9547 7.36977 16.0804 0 0 0
1149 4 0.16584 1.24453 9.91535 13.2367 0 0 0
1150 4 0.182188 1.63383 7.75346 13.2492 0 0 0
1151 3 -0.63903 2.00611 8.93905 13.4716 0 0 0
1158 4 0.331082 1.79546 7.33492 15.1669 0 0 0
1162 4 0.317771 0.100167 9.12124 15.2225 0 0 0
1184 2 1.26212 3.26134 9.29889 16.4683 0 0 0
1192 3 -1.03916 5.09326 6.41267 16.0114 0 0 0
1198 3 -1.05028 5.5718 9.18573 16.0499 0 0 0
1202 3 -0.852357 4.87928 7.43736 12.5591 0 0 0
1217 4 0.358565 4.95454 6.50173 15.1062 0 0 0
1229 4 0.314202 4.37645 8.0622 13.0108 0 0 0
1230 4 0.418144 5.72526 7.55067 12.8817 0 0 0
1609 3 -0.753025 4.63579 11.3145 13.2818 0 0 0
1650 4 0.380033 5.45086 10.8065 13.1053 0 0 0
1651 4 0.282932 4.01869 10.5992 13.4231 0 0 0
1120 4 0.390909 8.28144 5.67358 13.2272 0 0 0
1121 4 0.388162 9.77315 5.88845 13.0293 0 0 0
1194 3 -0.950524 7.73194 7.37402 16.0827 0 0 0
1209 3 -0.578647 6.95112 10.002 13.2175 0 0 0
1210 3 -0.545002 9.06502 9.16654 13.9975 0 0 0
1211 3 -0.548431 7.37613 7.6491 13.2305 0 0 0
1212 5 0.519972 7.79568 8.93826 13.4769 0 0 0
1219 4 0.399383 7.57174 7.33478 15.1688 0 0 0
1223 4 0.367797 5.87442 9.12167 15.2222 0 0 0
1245 1 0.700704 9.0372 9.2995 16.4687 0 0 0
1253 3 -1.01916 10.8688 6.41202 16.0112 0 0 0
1259 3 -0.932887 11.3421 9.18666 16.0515 0 0 0
1263 3 -0.856502 10.6601 7.43638 12.5589 0 0 0
1277 4 0.368945 10.7282 6.502 15.1063 0 0 0
1289 4 0.390393 10.1527 8.06104 13.0111 0 0 0
1290 4 0.302263 11.4976 7.55091 12.8817 0 0 0
1694 3 -0.742207 10.414 11.3159 13.2807 0 0 0
1734 4 0.270802 11.2255 10.8068 13.1062 0 0 0
1735 4 0.387432 9.7917 10.5997 13.4241 0 0 0
1250 3 -0.927453 8.00024 11.3444 16.0092 0 0 0
952 4 0.324439 14.0566 5.6726 13.227 0 0 0
953 4 0.377017 15.5473 5.88825 13.0292 0 0 0
1124 2 1.26464 14.8113 9.29895 16.4683 0 0 0
1132 3 -0.926578 16.6452 6.40667 16.0126 -1 0 0
1138 3 -1.06275 17.1224 9.18597 16.0497 -1 0 0
1142 3 -0.844929 16.4332 7.43763 12.5601 0 0 0
1156 4 0.355509 16.5038 6.50097 15.106 -1 0 0