LAMMPS data file via write_data, version 12 Apr 2013, timestep = 1

1737 atoms
5 atom types

0 17.324 xlo xhi
0 39.708 ylo yhi
0 33.947 zlo zhi

Masses

1 26.982
2 40.078
3 15.994
4 1.0079
5 12.011

Atoms

374 4 0.397676 2.73695 2.27278 5.47432 0 0 0
991 3 -0.707165 3.61724 3.8215 5.0055 0 0 0
1029 4 0.303473 3.11477 4.44654 5.45571 0 0 0
1031 4 0.428553 4.46299 3.93433 5.3265 0 0 0
433 4 0.414906 8.51077 2.27301 5.47428 0 0 0
1076 3 -0.708771 9.39784 3.82046 5.00527 0 0 0
1112 4 0.399756 8.89155 4.44514 5.45549 0 0 0
1114 4 0.347967 10.2354 3.93482 5.32677 0 0 0
313 4 0.397816 14.2858 2.27285 5.47433 0 0 0
907 3 -0.713405 15.1713 3.82171 5.0061 0 0 0
945 4 0.301128 14.6654 4.44598 5.4558 0 0 0
947 4 0.302975 16.0093 3.9351 5.32698 0 0 0
1324 3 -0.703693 0.749556 8.73649 5.0081 0 0 0
1352 4 0.384467 1.60231 8.81817 5.23684 0 0 0
1354 4 0.318719 0.570097 7.86032 5.26573 0 0 0
1416 4 0.403844 4.18913 7.19152 5.5508 0 0 0
1385 3 -0.708688 6.52642 8.73977 5.0076 0 0 0
1412 4 0.384433 7.37765 8.819 5.23656 0 0 0
1414 4 0.406116 6.34414 7.85989 5.26636 0 0 0
1476 4 0.324874 9.96342 7.19175 5.55192 0 0 0
1357 4 0.310659 15.7373 7.19149 5.55223 0 0 0
1445 3 -0.706124 12.2995 8.73654 5.00811 0 0 0
1472 4 0.384281 13.1523 8.81815 5.23685 0 0 0
1474 4 0.320203 12.1201 7.86032 5.26568 0 0 0
1422 4 0.416085 2.74668 12.2 5.47427 0 0 0
1606 3 -0.709547 3.63292 13.7475 5.00528 0 0 0
1644 4 0.396947 3.12648 14.3721 5.45549 0 0 0
1646 4 0.335628 4.47039 13.8617 5.3268 0 0 0
1482 4 0.39893 8.52082 12.1998 5.47432 0 0 0
1691 3 -0.711296 9.40632 13.7487 5.00615 0 0 0
1728 4 0.297901 8.90041 14.373 5.45574 0 0 0
1730 4 0.304426 10.2443 13.8621 5.32697 0 0 0
1362 4 0.396649 14.296 12.1998 5.47426 0 0 0
1522 3 -0.702153 15.1763 13.7485 5.00558 0 0 0
1560 4 0.29814 14.6737 14.3736 5.45562 0 0 0
1562 4 0.42629 16.022 13.8613 5.32646 0 0 0
1143 3 -0.703208 0.761426 18.6668 5.0076 0 0 0
1170 4 0.387849 1.61265 18.746 5.23656 0 0 0
1172 4 0.408612 0.579138 17.7869 5.26634 0 0 0
1235 4 0.291768 4.19808 17.1189 5.55187 0 0 0
1241 4 0.399922 2.75589 22.1278 5.47424 0 0 0
1203 3 -0.702508 6.53449 18.6633 5.00815 0 0 0
1231 4 0.386484 7.38732 18.7453 5.23686 0 0 0
1233 4 0.285753 6.35537 17.788 5.26558 0 0 0
1295 4 0.302284 9.97234 17.1185 5.55211 0 0 0
1301 4 0.417341 8.53068 22.128 5.47433 0 0 0
1175 4 0.40278 15.7481 17.1185 5.55071 0 0 0
1180 4 0.395934 14.3058 22.1277 5.47431 0 0 0
1264 3 -0.702678 12.3085 18.6635 5.00815 0 0 0
1291 4 0.3859 13.1613 18.7451 5.23681 0 0 0
1293 4 0.317786 12.1291 17.7873 5.26567 0 0 0
123 3 -0.704855 3.63737 23.6755 5.00558 0 0 0
161 4 0.301067 3.1347 24.3005 5.45561 0 0 0
163 4 0.420268 4.48276 23.7883 5.32645 0 0 0
486 4 0.285685 0.590357 27.715 5.26557 0 0 0
548 4 0.399185 4.20887 27.0456 5.55078 0 0 0
208 3 -0.713263 9.41808 23.6745 5.00512 0 0 0
245 4 0.394006 8.90999 24.2994 5.45584 0 0 0
247 4 0.303145 10.2541 23.7886 5.32682 0 0 0
546 4 0.409503 6.36326 27.7141 5.26638 0 0 0
608 4 0.291612 9.98244 27.046 5.55186 0 0 0
39 3 -0.711566 15.1901 23.6757 5.00605 0 0 0
77 4 0.301255 14.6853 24.3002 5.45594 0 0 0
79 4 0.338808 16.029 23.789 5.32702 0 0 0
489 4 0.276451 15.7559 27.0456 5.5521 0 0 0
606 4 0.287179 12.1394 27.7149 5.26559 0 0 0
456 3 -0.704994 0.769507 28.5903 5.00814 0 0 0
484 4 0.383328 1.62233 28.6722 5.23686 0 0 0
554 4 0.41787 2.76573 32.055 5.47433 0 0 0
738 3 -0.711992 3.65278 33.6016 5.00523 0 0 0
778 4 0.341183 4.48945 33.7167 5.32684 0 0 0
517 3 -0.711094 6.54544 28.5937 5.00746 0 0 0
544 4 0.387928 7.39658 28.6729 5.23663 0 0 0
614 4 0.396005 8.54075 32.0548 5.47434 0 0 0
823 3 -0.707608 9.42535 33.6026 5.00616 0 0 0
861 4 0.303114 10.2634 33.7171 5.32693 0 0 0
494 4 0.401331 14.3149 32.0548 5.47433 0 0 0
577 3 -0.705996 12.3185 28.5904 5.00814 0 0 0
604 4 0.382938 13.1713 28.6722 5.23682 0 0 0
654 3 -0.705184 15.1963 33.6025 5.00558 0 0 0
694 4 0.42097 16.042 33.7163 5.32648 0 0 0
276 3 -0.7012 0.780352 38.5208 5.00765 0 0 0
303 4 0.389182 1.63163 38.6 5.23655 0 0 0
305 4 0.410777 0.598128 37.6409 5.26633 0 0 0
368 4 0.294163 4.21713 36.9729 5.55188 0 0 0
776 4 0.395305 3.14557 34.226 5.45547 0 0 0
336 3 -0.697083 6.5534 38.5174 5.00822 0 0 0
364 4 0.387868 7.40631 38.5993 5.2368 0 0 0
366 4 0.287976 6.37437 37.642 5.26556 0 0 0
427 4 0.306214 9.99135 36.9725 5.55214 0 0 0
859 4 0.297533 8.92033 34.2271 5.45574 0 0 0
308 4 0.404355 15.7681 36.9726 5.55074 0 0 0
397 3 -0.698918 12.3285 38.5176 5.0082 0 0 0
423 4 0.386325 13.1813 38.5992 5.2368 0 0 0
425 4 0.318488 12.1491 37.6413 5.26567 0 0 0
692 4 0.299002 14.6937 34.2275 5.45564 0 0 0
333 3 -0.768471 4.87418 0.705728 6.32751 0 0 0
340 3 -0.722167 2.07979 1.64956 5.68251 0 0 0
358 4 0.403483 5.32114 0.013457 5.91216 0 0 0
360 4 0.332051 3.91705 0.477257 6.02112 0 0 0
372 4 0.339911 1.24542 2.05747 5.6726 0 0 0
713 3 -1.04712 3.09354 0.344251 10.4351 0 1 0
731 3 -1.05507 1.46627 0.591633 8.43233 0 1 0
750 4 0.357579 3.37865 0.00152251 11.2002 0 1 0
768 4 0.362466 1.88135 0.647233 7.61897 0 1 0
875 2 1.38316 1.96554 2.38324 10.0119 0 0 0
892 3 -0.935025 0.121733 5.3066 10.5251 1 0 0
894 3 -0.965256 0.696362 3.75942 8.52844 1 0 0
912 4 0.174939 1.92842 5.53179 6.39917 0 0 0
914 4 0.193096 0.374634 4.13654 5.69609 0 0 0
916 3 -0.587831 0.764017 5.31573 5.92481 0 0 0
931 4 0.310992 0.53381 3.71967 7.6128 1 0 0
954 2 1.33345 4.90156 0.746222 8.87012 0 0 0
964 2 2.00453 4.8615 4.04423 9.50782 0 0 0
974 3 -1.02881 3.83143 2.79727 8.45717 0 0 0
980 3 -0.959856 3.24775 4.29058 10.4819 0 0 0
986 3 -0.958895 4.304 5.5714 8.49735 0 0 0
988 3 -1.04418 5.43773 2.50388 10.5007 0 0 0
1011 4 0.347463 3.69249 2.88587 7.55222 0 0 0
1017 4 0.391127 3.30841 4.73649 11.2737 0 0 0
1023 4 0.336591 4.61163 5.50558 7.66869 0 0 0
394 3 -0.77469 10.6483 0.706012 6.3274 0 0 0
401 3 -0.721002 7.85512 1.64865 5.68254 0 0 0
417 4 0.405667 11.0951 0.013413 5.91221 0 0 0
419 4 0.334155 9.692 0.477216 6.02114 0 0 0
431 4 0.419884 7.01921 2.05846 5.67251 0 0 0
798 3 -1.04776 8.86835 0.344216 10.4353 0 1 0
816 3 -1.05129 7.24132 0.591637 8.43238 0 1 0
833 4 0.346277 9.15267 0.00148975 11.2001 0 1 0
851 4 0.366787 7.65633 0.647272 7.61896 0 1 0
960 2 1.36582 7.74063 2.38327 10.0117 0 0 0
976 3 -1.02562 5.89328 5.30587 10.5268 0 0 0
978 3 -1.06464 6.466 3.75394 8.52844 0 0 0
998 3 -0.641454 7.81608 5.5533 6.44395 0 0 0
1000 3 -0.503007 6.11553 4.03718 5.67647 0 0 0
1001 5 0.522174 6.51661 5.31972 5.91433 0 0 0
1015 4 0.37402 6.30923 3.7181 7.6149 0 0 0
1039 2 1.33641 10.6766 0.746144 8.87002 0 0 0
1049 2 2.00988 10.6358 4.04458 9.50791 0 0 0
1059 3 -1.03999 9.60637 2.79764 8.45731 0 0 0
1065 3 -1.05429 9.02525 4.28804 10.4846 0 0 0
1071 3 -1.04593 10.0857 5.571 8.49623 0 0 0
1073 3 -1.044 11.2127 2.5038 10.5005 0 0 0
1094 4 0.347261 9.46637 2.88581 7.5522 0 0 0
1100 4 0.382149 9.08276 4.73598 11.2739 0 0 0
1106 4 0.357063 10.3871 5.50535 7.66934 0 0 0
274 3 -0.784228 16.4233 0.706106 6.3274 0 0 0
280 3 -0.718844 13.6298 1.64941 5.68251 0 0 0
298 4 0.407799 16.8701 0.0133238 5.9122 0 0 0
300 4 0.332731 15.4661 0.477193 6.02115 0 0 0
311 4 0.36555 12.7944 2.05758 5.67257 0 0 0
628 3 -1.0533 14.6433 0.344234 10.4353 0 1 0
646 3 -1.05172 13.0163 0.591596 8.43234 0 1 0
665 4 0.340214 14.9277 0.00145533 11.2 0 1 0
683 4 0.364354 13.4313 0.647276 7.61896 0 1 0
870 2 1.32252 16.4506 0.746156 8.87012 0 0 0
880 2 2.00282 16.4106 4.04463 9.50786 0 0 0
890 3 -1.03307 15.3808 2.79735 8.4571 0 0 0
896 3 -0.9594 14.7968 4.29056 10.4819 0 0 0
902 3 -0.945476 15.8536 5.57146 8.49686 0 0 0
904 3 -1.04689 16.9866 2.50391 10.5005 0 0 0
927 4 0.338753 15.2413 2.88584 7.55226 0 0 0
933 4 0.391961 14.8574 4.7365 11.2737 0 0 0
939 4 0.328496 16.1618 5.50537 7.66913 0 0 0
1045 2 1.38038 13.5146 2.38333 10.0116 0 0 0
1061 3 -0.937403 11.6707 5.30667 10.5252 0 0 0
1063 3 -0.961155 12.2454 3.75939 8.52854 0 0 0
1081 4 0.1735 13.477 5.53317 6.39913 0 0 0
1084 3 -0.496779 12.3205 5.32875 5.9282 0 0 0
1098 4 0.338433 12.0838 3.71973 7.61252 0 0 0
956 2 1.38268 4.87953 7.38679 10.046 0 0 0
958 1 0.615662 2.0002 5.6848 8.92059 0 0 0
962 2 2.00815 2.00788 9.00912 9.43574 0 0 0
966 3 -1.05476 3.06442 10.2712 10.4352 0 0 0
968 3 -0.948047 0.964511 7.72867 8.45542 0 0 0
970 3 -1.05294 3.61729 8.74789 8.45121 0 0 0
972 3 -1.0566 0.412913 9.30639 10.442 0 0 0
982 3 -0.957597 2.56925 7.48318 10.4618 0 0 0
984 3 -1.05669 1.43738 10.5185 8.43234 0 0 0
996 3 -0.551572 5.69071 6.38359 5.66362 0 0 0
1003 4 0.343519 3.34874 9.92847 11.2001 0 0 0
1005 4 0.330229 0.780701 7.78946 7.55237 0 0 0
1007 4 0.369368 3.47654 8.67562 7.53688 0 0 0
1009 4 0.320697 0.521313 9.65948 11.2523 0 0 0
1019 4 0.347318 2.33767 7.14326 11.286 0 0 0
1021 4 0.365558 1.85236 10.5743 7.61897 0 0 0
1382 3 -0.781589 4.88322 10.6331 6.32729 0 0 0
1387 3 -0.718934 3.37356 7.69916 5.72881 0 0 0
1406 4 0.407333 5.33025 9.94025 5.91213 0 0 0
1408 4 0.333344 3.92686 10.4042 6.02113 0 0 0
1418 4 0.287174 2.75679 6.98462 5.86894 0 0 0
1569 2 1.3464 4.91113 10.6731 8.87021 0 0 0
1041 2 1.37333 10.6543 7.38685 10.0458 0 0 0
1043 2 1.32303 7.77476 5.68428 8.91772 0 0 0
1047 2 2.012 7.78252 9.00942 9.4361 0 0 0
1051 3 -0.931988 8.8368 10.2767 10.4337 0 0 0
1053 3 -1.05149 6.73532 7.73564 8.45457 0 0 0
1055 3 -1.06677 9.39109 8.74738 8.45136 0 0 0
1057 3 -1.0481 6.18735 9.30586 10.4413 0 0 0
1067 3 -1.05473 8.34581 7.48648 10.464 0 0 0
1069 3 -0.96691 7.21336 10.5221 8.4351 0 0 0
1086 4 0.34814 9.1235 9.92896 11.2006 0 0 0
1088 4 0.351662 6.55537 7.78953 7.55223 0 0 0
1090 4 0.361997 9.25153 8.67578 7.53684 0 0 0
1092 4 0.406792 6.29514 9.65939 11.2518 0 0 0
1102 4 0.389373 8.11206 7.14382 11.2855 0 0 0
1104 4 0.362673 7.62761 10.5747 7.61905 0 0 0
1442 3 -0.786319 10.6582 10.6333 6.32712 0 0 0
1447 3 -0.723555 9.15152 7.70067 5.72791 0 0 0
1466 4 0.404695 11.1052 9.9403 5.91217 0 0 0
1468 4 0.332053 9.70184 10.4042 6.02113 0 0 0
1478 4 0.383416 8.53055 6.9854 5.86918 0 0 0
1654 2 1.33679 10.6852 10.673 8.87018 0 0 0
872 2 1.4044 16.4293 7.38678 10.0458 0 0 0
873 1 0.622161 13.5502 5.68478 8.92061 0 0 0
877 2 2.00755 13.5578 9.00912 9.43574 0 0 0
881 3 -1.05367 14.6134 10.2712 10.4353 0 0 0
883 3 -0.948421 12.5134 7.72869 8.45547 0 0 0
885 3 -1.05266 15.1663 8.7479 8.45115 0 0 0
887 3 -1.05803 11.962 9.30635 10.442 0 0 0
897 3 -0.954398 14.1192 7.48317 10.4619 0 0 0
899 3 -1.06419 12.9864 10.5186 8.4323 0 0 0
918 4 0.341117 14.8987 9.92847 11.2 0 0 0
920 4 0.326836 12.3307 7.78948 7.55234 0 0 0
922 4 0.367331 15.0265 8.67565 7.53689 0 0 0
924 4 0.320887 12.0703 9.65945 11.2523 0 0 0
934 4 0.347737 13.8867 7.14327 11.286 0 0 0
936 4 0.361258 13.4014 10.5742 7.61897 0 0 0
1322 3 -0.767126 16.4331 10.6329 6.32755 0 0 0
1327 3 -0.709181 14.9247 7.69826 5.72856 0 0 0
1347 4 0.406809 16.8802 9.94036 5.91214 0 0 0
1349 4 0.33213 15.4759 10.4043 6.02114 0 0 0
1359 4 0.282895 14.3071 6.9847 5.86864 0 0 0
1485 2 1.32927 16.46 10.6732 8.87007 0 0 0
1237 4 0.383739 2.76549 16.9124 5.86918 0 0 0
1389 3 -0.720259 2.09015 11.5756 5.68255 0 0 0
1420 4 0.421757 1.25425 11.9855 5.67249 0 0 0
1490 2 1.37047 1.97553 12.3102 10.0117 0 0 0
1507 3 -1.01697 0.129324 15.233 10.5268 1 0 0
1509 3 -1.06355 0.701049 13.6809 8.52842 1 0 0
1527 3 -0.638213 2.05109 15.4803 6.44396 0 0 0
1529 3 -0.501436 0.350517 13.9642 5.67649 0 0 0
1531 5 0.527003 0.751634 15.2467 5.91429 0 0 0
1546 4 0.373426 0.544224 13.6451 7.6149 1 0 0
1573 2 1.33339 2.00984 15.6112 8.91777 0 0 0
1579 2 1.99764 4.87101 13.9716 9.50806 0 0 0
1589 3 -1.04592 3.8413 12.7246 8.4574 0 0 0
1595 3 -1.05402 3.26031 14.2148 10.4847 0 0 0
1601 3 -1.05714 4.32139 15.4981 8.49624 0 0 0
1603 3 -0.940476 5.45408 12.4307 10.4992 0 0 0
1611 4 0.179976 5.76869 16.2292 5.68346 0 0 0
1626 4 0.344338 3.70137 12.8128 7.5522 0 0 0
1632 4 0.385687 3.31874 14.663 11.2739 0 0 0
1638 4 0.325019 4.62186 15.4322 7.66929 0 0 0
1297 4 0.262811 8.54208 16.9117 5.86849 0 0 0
1449 3 -0.721315 7.86477 11.5764 5.68252 0 0 0
1480 4 0.365742 7.02947 11.9846 5.67259 0 0 0
1575 1 0.725869 7.74785 12.3093 10.0108 0 0 0
1591 3 -1.0162 5.90297 15.2333 10.5272 0 0 0
1593 3 -0.957815 6.47953 13.6779 8.53081 0 0 0
1613 4 0.103861 7.7122 15.4617 6.3991 0 0 0
1616 3 -0.591515 6.54475 15.2656 5.92518 0 0 0
1630 4 0.316909 6.31864 13.6458 7.61241 0 0 0
1658 2 1.23535 7.78435 15.6106 8.91558 0 0 0
1664 1 0.883577 10.645 13.9737 9.5072 0 0 0
1674 3 -0.716619 9.61247 12.7226 8.46241 0 0 0
1680 3 -0.688469 9.02999 14.2096 10.4808 0 0 0
1686 3 -0.837113 10.0946 15.4983 8.49796 0 0 0
1688 3 -0.783095 11.2242 12.4305 10.4979 0 0 0
1710 4 0.305856 9.47769 12.8155 7.55145 0 0 0
1716 4 0.364828 9.09615 14.6633 11.2743 0 0 0
1722 4 0.318548 10.3989 15.4292 7.66966 0 0 0
1177 4 0.27413 14.3158 16.9116 5.86876 0 0 0
1328 3 -0.723175 13.6397 11.5766 5.68258 0 0 0
1360 4 0.339463 12.8045 11.9844 5.67256 0 0 0
1488 2 1.22613 13.5587 15.6115 8.91539 0 0 0
1495 2 2.01684 16.4208 13.9714 9.50806 0 0 0
1505 3 -1.04807 15.39 12.7248 8.45732 0 0 0
1511 3 -1.04809 14.8092 14.215 10.4845 0 0 0
1517 3 -1.06824 15.8702 15.4978 8.49599 0 0 0
1519 3 -1.0432 16.9967 12.4308 10.5006 0 0 0
1526 3 -0.550774 17.2497 16.3106 5.66366 -1 0 0
1542 4 0.33334 15.2516 12.8127 7.55212 0 0 0
1548 4 0.385948 14.8678 14.663 11.2739 0 0 0
1554 4 0.33629 16.1723 15.4326 7.669 0 0 0
1660 2 1.34667 13.5248 12.31 10.012 0 0 0
1676 3 -0.789693 11.677 15.2337 10.5245 0 0 0
1678 3 -0.829299 12.2524 13.6806 8.52997 0 0 0
1696 4 0.103692 13.4877 15.4588 6.39907 0 0 0
1698 4 0.192855 11.9336 14.0635 5.69605 0 0 0
1700 3 -0.595696 12.324 15.2427 5.9253 0 0 0
1714 4 0.296926 12.0892 13.6466 7.6127 0 0 0
7 2 1.34855 1.98583 22.237 10.0122 0 0 0
86 2 1.31708 4.91957 20.6004 8.87003 0 0 0
106 3 -1.05315 3.85008 22.6519 8.45728 0 0 0
120 3 -1.04991 5.45668 22.3579 10.5006 0 0 0
1200 3 -0.770694 4.89319 20.5599 6.32739 0 0 0
1205 3 -0.719889 3.38678 17.6276 5.72795 0 0 0
1207 3 -0.724189 2.09979 21.5035 5.68264 0 0 0
1225 4 0.404793 5.34026 19.8674 5.91211 0 0 0
1227 4 0.333645 3.93686 20.3313 6.02111 0 0 0
1239 4 0.362931 1.26441 21.9116 5.6725 0 0 0
1571 2 1.34509 4.88903 17.3133 10.046 0 0 0
1577 2 2.02554 2.01766 18.9363 9.43587 0 0 0
1581 3 -1.05012 3.07473 20.1982 10.435 0 0 0
1583 3 -1.04682 0.970209 17.6625 8.45461 0 0 0
1585 3 -1.06762 3.62621 18.6744 8.45132 0 0 0
1587 3 -1.05589 0.422593 19.2335 10.4411 0 0 0
1597 3 -1.04823 2.58077 17.4134 10.464 0 0 0
1599 3 -1.05901 1.44744 20.4457 8.43231 0 0 0
1618 4 0.351923 3.3586 19.8555 11.2002 0 0 0
1620 4 0.353043 0.790385 17.7166 7.55223 0 0 0
1622 4 0.359397 3.48647 18.6028 7.53684 0 0 0
1624 4 0.384106 0.530029 19.5861 11.252 0 0 0
1634 4 0.392635 2.34707 17.0708 11.2855 0 0 0
1636 4 0.36218 1.86237 20.5012 7.61898 0 0 0
92 2 1.38455 7.75943 22.2378 10.0116 0 0 0
171 2 1.31803 10.6954 20.6006 8.8701 0 0 0
191 3 -1.0261 9.6258 22.6511 8.45708 0 0 0
205 3 -1.04431 11.2315 22.3579 10.5007 0 0 0
1261 3 -0.786875 10.6682 20.5601 6.32728 0 0 0
1266 3 -0.715214 9.15976 17.6252 5.72881 0 0 0
1268 3 -0.722676 7.87513 21.5026 5.68257 0 0 0
1285 4 0.401979 11.1152 19.8673 5.91215 0 0 0
1287 4 0.331683 9.71089 20.3313 6.02116 0 0 0
1299 4 0.421185 7.03926 21.9125 5.67248 0 0 0
1656 2 1.34542 10.6646 17.3141 10.0462 0 0 0
1662 1 0.857948 7.79386 18.9391 9.43431 0 0 0
1666 3 -0.816374 8.8476 20.1995 10.4331 0 0 0
1668 3 -0.808175 6.74488 17.6599 8.4571 0 0 0
1670 3 -0.824155 9.40246 18.6741 8.45399 0 0 0
1672 3 -0.814982 6.19531 19.2322 10.4396 0 0 0
1682 3 -0.788997 8.35746 17.4132 10.4621 0 0 0
1684 3 -0.810447 7.22055 20.4461 8.43466 0 0 0
1702 4 0.343332 9.13222 19.8523 11.1997 0 0 0
1704 4 0.287564 6.567 17.72 7.55135 0 0 0
1706 4 0.351784 9.25798 18.6032 7.53656 0 0 0
1708 4 0.327831 6.30903 19.5868 11.2526 0 0 0
1718 4 0.302193 8.11984 17.0723 11.2877 0 0 0
1720 4 0.36711 7.63848 20.4984 7.61905 0 0 0
2 2 1.33449 16.4702 20.5999 8.87012 0 0 0
22 3 -0.797983 15.3997 22.6501 8.46026 0 0 0
36 3 -0.786111 17.0088 22.3573 10.4979 0 0 0
177 2 1.35954 13.5342 22.2368 10.0118 0 0 0
1141 3 -0.774175 16.4422 20.5601 6.32731 0 0 0
1146 3 -0.716881 14.9326 17.6261 5.72901 0 0 0
1147 3 -0.720773 13.6488 21.5036 5.68256 0 0 0
1165 4 0.412964 16.8893 19.8673 5.91211 0 0 0
1167 4 0.335733 15.4859 20.3312 6.02109 0 0 0
1178 4 0.341444 12.8135 21.9114 5.67259 0 0 0
1487 2 1.37358 16.4385 17.3137 10.046 0 0 0
1492 2 2.01426 13.5666 18.9363 9.43597 0 0 0
1496 3 -1.0478 14.6234 20.1982 10.4353 0 0 0
1498 3 -1.05648 12.5205 17.6619 8.45386 0 0 0
1500 3 -1.06414 15.1761 18.6743 8.45132 0 0 0
1502 3 -1.05293 11.9718 19.2334 10.442 0 0 0
1512 3 -1.04191 14.1305 17.4136 10.4645 0 0 0
1514 3 -1.05891 12.9965 20.4456 8.43227 0 0 0
1533 4 0.345972 14.9087 19.8555 11.2 0 0 0
1535 4 0.31471 12.3395 17.7171 7.55247 0 0 0
1537 4 0.359624 15.0356 18.6028 7.53682 0 0 0
1539 4 0.325755 12.0804 19.5864 11.2523 0 0 0
1549 4 0.34663 13.8968 17.0709 11.2865 0 0 0
1551 4 0.359193 13.4114 20.5012 7.61896 0 0 0
24 3 -0.789502 0.137145 25.1608 10.5246 1 0 0
26 3 -0.825333 0.712583 23.6076 8.53002 1 0 0
45 4 0.101784 1.94726 25.3888 6.39908 0 0 0
48 3 -0.590632 0.779782 25.1926 5.92522 0 0 0
63 4 0.324851 0.550044 23.5746 7.61243 1 0 0
88 2 1.39527 4.89936 27.2411 10.0457 0 0 0
90 2 1.21011 2.02003 25.5382 8.91522 0 0 0
96 2 1.99644 4.88081 23.8986 9.50794 0 0 0
100 3 -0.813831 0.980045 27.5871 8.45709 0 0 0
112 3 -1.05533 3.26934 24.1421 10.4846 0 0 0
114 3 -0.797893 2.59238 27.3402 10.462 0 0 0
118 3 -1.06405 4.32965 25.4246 8.49577 0 0 0
128 3 -0.552984 5.70918 26.2384 5.66338 0 0 0
137 4 0.285356 0.801989 27.647 7.55136 0 0 0
143 4 0.329847 3.71161 22.7407 7.55212 0 0 0
149 4 0.374576 3.32778 24.59 11.2739 0 0 0
151 4 0.295551 2.35488 26.9993 11.2877 0 0 0
155 4 0.348433 4.63249 25.3606 7.66912 0 0 0
519 3 -0.725761 3.39264 27.5531 5.72897 0 0 0
550 4 0.26934 2.77584 26.8386 5.86879 0 0 0
108 3 -0.939812 5.91562 25.1605 10.5251 0 0 0
110 3 -0.961707 6.48992 23.613 8.52956 0 0 0
129 3 -0.553661 7.82336 25.4058 6.44443 0 0 0
131 3 -0.507866 6.13449 23.89 5.6762 0 0 0
133 5 0.528794 6.54991 25.1762 5.92044 0 0 0
147 4 0.381374 6.3287 23.5738 7.61483 0 0 0
173 2 1.37115 10.6734 27.2409 10.0459 0 0 0
175 1 0.680812 7.79412 25.5386 8.91608 0 0 0
181 2 2.00723 10.6555 23.8981 9.50787 0 0 0
185 3 -0.929057 6.7585 27.5831 8.45583 0 0 0
197 3 -0.960611 9.04175 24.1447 10.4819 0 0 0
199 3 -0.960918 8.36457 27.3369 10.4612 0 0 0
203 3 -0.946958 10.1 25.4257 8.49759 0 0 0
213 4 0.183259 11.5515 26.1542 5.6825 0 0 0
221 4 0.372326 6.57464 27.6429 7.55216 0 0 0
227 4 0.355436 9.48622 22.741 7.55229 0 0 0
233 4 0.391539 9.10239 24.5905 11.2737 0 0 0
235 4 0.405821 8.13183 26.9972 11.2852 0 0 0
239 4 0.322355 10.4063 25.3602 7.66901 0 0 0
579 3 -0.71782 9.17186 27.5547 5.72772 0 0 0
610 4 0.388823 8.54974 26.8387 5.86976 0 0 0
4 2 1.3392 16.4478 27.241 10.0461 0 0 0
5 2 1.24 13.568 25.5382 8.91515 0 0 0
12 1 0.867605 16.4316 23.9018 9.50678 0 0 0
15 3 -1.05408 12.5295 27.5889 8.45394 0 0 0
28 3 -0.796903 14.8175 24.1401 10.4824 0 0 0
29 3 -1.04162 14.1394 27.3408 10.4645 0 0 0
34 3 -0.831784 15.8787 25.4256 8.4979 0 0 0
43 4 0.176728 0.00374252 26.1562 5.68344 0 0 0
52 4 0.310637 12.3495 27.6442 7.55249 0 0 0
59 4 0.312853 15.2621 22.7435 7.55128 0 0 0
65 4 0.372526 14.8815 24.5908 11.2741 0 0 0
66 4 0.349036 13.9068 26.9979 11.2865 0 0 0
71 4 0.309561 16.1828 25.3571 7.66965 0 0 0
193 3 -1.02931 11.6883 25.16 10.5268 0 0 0
195 3 -1.0654 12.2614 23.6083 8.5273 0 0 0
216 4 0.194267 11.9409 23.9916 5.69506 0 0 0
217 3 -0.629712 12.313 25.178 5.91794 0 0 0
231 4 0.305431 12.1025 23.5741 7.61293 0 0 0
459 3 -0.713765 14.944 27.5523 5.72872 0 0 0
491 4 0.274848 14.3268 26.8382 5.86864 0 0 0
94 1 0.87272 2.0304 28.8672 9.43387 0 0 0
98 3 -0.735743 3.08513 30.1271 10.4307 0 0 0
102 3 -0.726318 3.64043 28.6049 8.45556 0 0 0
104 3 -0.816336 0.43055 29.1592 10.4397 0 0 0
116 3 -0.812547 1.45527 30.3729 8.43458 0 0 0
135 4 0.351 3.36773 29.7793 11.1994 0 0 0
139 4 0.364354 3.49344 28.5308 7.53672 0 0 0
141 4 0.309588 0.543899 29.5138 11.2524 0 0 0
153 4 0.378319 1.8737 30.4254 7.61918 0 0 0
514 3 -0.697458 4.90246 30.4864 6.32992 0 0 0
521 3 -0.726258 2.11008 31.4296 5.68258 0 0 0
538 4 0.409054 5.35015 29.7948 5.91297 0 0 0
540 4 0.339639 3.94683 30.2586 6.02197 0 0 0
552 4 0.417366 1.27425 31.8395 5.67248 0 0 0
622 2 1.37213 1.9943 32.1647 10.0118 0 0 0
641 3 -1.06929 0.720975 33.5348 8.52836 1 0 0
662 3 -0.509592 0.370483 33.8181 5.67645 0 0 0
678 4 0.369103 0.563235 33.5002 7.61491 1 0 0
701 1 0.693438 4.92998 30.5282 8.87186 0 0 0
711 2 2.00348 4.89091 33.8251 9.50786 0 0 0
721 3 -0.939746 3.86341 32.5724 8.45859 0 0 0
735 3 -0.961534 5.46551 32.2815 10.4978 0 0 0
758 4 0.355376 3.72173 32.6671 7.55203 0 0 0
179 2 2.01134 7.80171 28.8628 9.43578 0 0 0
183 3 -1.05429 8.85861 30.1252 10.4349 0 0 0
187 3 -1.05398 9.41135 28.602 8.45118 0 0 0
189 3 -0.968394 6.20407 29.1632 10.4381 0 0 0
201 3 -0.948102 7.22504 30.3731 8.43373 0 0 0
219 4 0.352165 9.14366 29.7825 11.2002 0 0 0
223 4 0.369655 9.27144 28.5296 7.53688 0 0 0
225 4 0.388742 6.3147 29.5136 11.2519 0 0 0
237 4 0.35492 7.6459 30.4283 7.61856 0 0 0
574 3 -0.782681 10.6782 30.4872 6.32731 0 0 0
581 3 -0.724384 7.88387 31.4305 5.68247 0 0 0
598 4 0.40198 11.1243 29.7943 5.91213 0 0 0
600 4 0.329207 9.72091 30.2583 6.02116 0 0 0
612 4 0.367803 7.04844 31.8386 5.67263 0 0 0
707 2 1.37851 7.76949 32.1641 10.0119 0 0 0
725 3 -1.0539 6.49677 33.5359 8.52729 0 0 0
762 4 0.336184 6.33738 33.5009 7.61271 0 0 0
786 2 1.34709 10.7051 30.5272 8.87029 0 0 0
796 2 2.00699 10.666 33.8255 9.5082 0 0 0
806 3 -1.05265 9.63522 32.5788 8.45731 0 0 0
820 3 -0.9308 11.2481 32.2846 10.4993 0 0 0
841 4 0.325953 9.49647 32.6677 7.55218 0 0 0
9 2 2.01351 13.5766 28.8634 9.43603 0 0 0
13 3 -0.930904 14.6307 30.1307 10.4339 0 0 0
17 3 -1.07 15.186 28.6012 8.45127 0 0 0
19 3 -1.0464 11.9816 29.1598 10.4421 0 0 0
31 3 -0.963967 13.0072 30.376 8.43504 0 0 0
50 4 0.334606 14.9175 29.7829 11.2005 0 0 0
54 4 0.355105 15.0455 28.5299 7.53686 0 0 0
56 4 0.358386 12.0905 29.5137 11.2523 0 0 0
68 4 0.366455 13.4217 30.4287 7.61907 0 0 0
454 3 -0.77265 16.4522 30.4869 6.32718 0 0 0
460 3 -0.716498 13.6587 31.4305 5.68246 0 0 0
479 4 0.40465 16.8993 29.7943 5.91213 0 0 0
481 4 0.335132 15.4958 30.2583 6.02113 0 0 0
492 4 0.347357 12.8235 31.8384 5.67262 0 0 0
617 2 1.33745 16.4787 30.5272 8.87011 0 0 0
627 2 2.00142 16.4399 33.8249 9.50809 0 0 0
637 3 -0.947817 15.4069 32.578 8.45978 0 0 0
651 3 -1.0333 17.0172 32.2849 10.5009 0 0 0
674 4 0.335497 15.2701 32.6677 7.55213 0 0 0
792 1 0.710669 13.5435 32.1647 10.0106 0 0 0
810 3 -0.951092 12.2735 33.5319 8.53066 0 0 0
830 4 0.196837 11.9536 33.9175 5.69604 0 0 0
845 4 0.29372 12.1126 33.5008 7.61268 0 0 0
338 3 -0.718024 3.40671 37.4816 5.72792 0 0 0
370 4 0.384083 2.78552 36.7665 5.86918 0 0 0
639 3 -1.02541 0.148177 35.0869 10.5269 1 0 0
658 3 -0.551805 17.2689 36.1642 5.66372 -1 0 0
660 3 -0.641389 2.07093 35.3344 6.44424 0 0 0
663 5 0.518913 0.770571 35.101 5.91389 0 0 0
703 2 1.36858 4.9083 37.1678 10.0459 0 0 0
705 2 1.32506 2.02876 35.4652 8.9179 0 0 0
709 2 2.02272 2.03653 38.7902 9.43596 0 0 0
715 3 -1.04673 0.990225 37.5165 8.45461 0 0 0
717 3 -1.06509 3.64618 38.5284 8.45131 0 0 0
719 3 -1.05548 0.441445 39.0876 10.441 0 0 0
727 3 -1.05346 3.27927 34.069 10.4846 0 0 0
729 3 -1.04634 2.60076 37.2674 10.464 0 0 0
733 3 -1.05654 4.34124 35.3521 8.49631 0 0 0
752 4 0.355685 0.80938 37.5716 7.55225 0 0 0
754 4 0.360535 3.50648 38.4568 7.53682 0 0 0
756 4 0.384136 0.550043 39.4401 11.252 0 0 0
764 4 0.38468 3.33778 34.517 11.2739 0 0 0
766 4 0.391669 2.36707 36.9248 11.2855 0 0 0
770 4 0.32974 4.64191 35.2872 7.6693 0 0 0
399 3 -0.708651 9.17874 37.4793 5.72873 0 0 0
429 4 0.263992 8.56205 36.7656 5.8685 0 0 0
723 3 -1.0209 5.92336 35.087 10.5268 0 0 0
743 4 0.185027 5.78869 36.0831 5.68347 0 0 0
745 4 0.104924 7.73219 35.3158 6.3991 0 0 0
748 3 -0.586166 6.56378 35.1196 5.92516 0 0 0
788 2 1.36767 10.6834 37.1677 10.0458 0 0 0
790 2 1.23969 7.80341 35.4651 8.9158 0 0 0
794 2 2.01726 7.81146 38.7902 9.43583 0 0 0
800 3 -1.04986 6.76539 37.5157 8.45393 0 0 0
802 3 -1.06362 9.4211 38.5283 8.45132 0 0 0
804 3 -1.05063 6.21677 39.0875 10.4418 0 0 0
812 3 -1.05078 9.05423 34.0689 10.4845 0 0 0
814 3 -1.03668 8.37446 37.2677 10.4646 0 0 0
818 3 -1.06575 10.1143 35.3519 8.49568 0 0 0
835 4 0.311094 6.58448 37.5723 7.55252 0 0 0
837 4 0.359016 9.28054 38.4569 7.53684 0 0 0
839 4 0.340417 6.32536 39.4404 11.2525 0 0 0
847 4 0.385544 9.11278 34.517 11.2739 0 0 0
849 4 0.33378 8.14184 36.9248 11.2863 0 0 0
853 4 0.31185 10.4163 35.2873 7.66931 0 0 0
279 3 -0.714202 14.9516 37.4801 5.72897 0 0 0
310 4 0.276291 14.3348 36.7656 5.86877 0 0 0
619 2 1.36923 16.4585 37.1677 10.046 0 0 0
620 2 1.26259 13.5783 35.4652 8.91557 0 0 0
624 2 2.01068 13.5864 38.7902 9.43589 0 0 0
630 3 -1.04934 12.5395 37.5158 8.45397 0 0 0
632 3 -1.06814 15.1951 38.5284 8.45138 0 0 0
634 3 -1.04978 11.9917 39.0875 10.4419 0 0 0
643 3 -0.929749 14.8247 34.0638 10.4831 0 0 0
644 3 -1.03936 14.1495 37.2677 10.4646 0 0 0
649 3 -1.0722 15.8893 35.3517 8.49611 0 0 0
667 4 0.320742 12.3594 37.5722 7.55248 0 0 0
669 4 0.361272 15.0556 38.4568 7.5368 0 0 0
671 4 0.322298 12.0993 39.4404 11.2523 0 0 0
680 4 0.376183 14.8864 34.5167 11.2743 0 0 0
681 4 0.353085 13.9158 36.9249 11.2865 0 0 0
686 4 0.334482 16.1913 35.2876 7.669 0 0 0
808 3 -1.00962 11.697 35.0874 10.5271 0 0 0
828 4 0.10822 13.5077 35.3128 6.39906 0 0 0
831 3 -0.593003 12.343 35.0968 5.92529 0 0 0
905 3 -0.78291 0.361253 4.32225 13.8797 0 0 0
908 3 -0.838172 2.0031 2.42846 12.5607 0 0 0
929 4 0.357142 0.378027 4.91478 11.318 1 0 0
942 4 0.398131 0.8078 3.62956 13.4659 0 0 0
948 4 0.37287 2.85514 2.50675 12.7916 0 0 0
949 4 0.393569 1.82126 1.54797 12.8216 0 0 0
994 3 -0.750687 4.6298 1.38907 13.2807 0 0 0
995 3 -0.756698 3.34187 5.2645 13.2342 0 0 0
1025 4 0.377021 5.2254 2.14861 11.3249 0 0 0
1028 4 0.316785 5.179 4.09216 13.5754 0 0 0
1035 4 0.292894 5.44061 0.879595 13.1063 0 0 0
1036 4 0.380942 4.0084 0.673587 13.4235 0 0 0
1037 4 0.323986 2.50752 5.67264 13.227 0 0 0
1122 2 1.35083 0.388108 4.36108 16.4239 0 0 0
1330 3 -0.585771 1.20566 0.0738074 13.2174 0 1 0
1371 3 -1.03528 2.21343 1.42346 16.0077 0 0 0
1372 3 -1.05764 4.86907 2.43534 16.0043 0 0 0
1379 3 -1.05398 2.68949 4.20673 15.9863 0 0 0
1395 4 0.376338 2.03232 1.47855 15.1062 0 0 0
1396 4 0.375181 4.72956 2.36376 15.0898 0 0 0
1403 4 0.373088 3.10431 4.2622 15.1729 0 0 0
990 3 -0.772832 6.13625 4.32204 13.8794 0 0 0
993 3 -0.83172 7.77609 2.42503 12.5614 0 0 0
1013 4 0.359019 6.15258 4.91489 11.3181 0 0 0
1027 4 0.394347 6.58279 3.6296 13.4659 0 0 0
1033 4 0.374939 8.62986 2.50595 12.7918 0 0 0
1034 4 0.301488 7.59726 1.54846 12.8206 0 0 0
1079 3 -0.741319 10.4022 1.38635 13.2818 0 0 0
1080 3 -0.762245 9.11713 5.26363 13.2342 0 0 0
1108 4 0.379058 11.0004 2.14864 11.3249 0 0 0
1111 4 0.315473 10.954 4.09216 13.5754 0 0 0
1118 4 0.254021 11.2142 0.879451 13.1064 0 0 0
1119 4 0.265711 9.78495 0.672694 13.4227 0 0 0
1120 4 0.386626 8.2814 5.6736 13.2271 0 0 0
1182 2 1.33169 6.16279 4.36094 16.4238 0 0 0
1431 3 -0.789288 7.9881 1.42096 16.0103 0 0 0
1432 3 -0.821387 10.6454 2.43515 16.0071 0 0 0
1439 3 -0.803998 8.46268 4.20711 15.9886 0 0 0
1455 4 0.317301 7.80895 1.482 15.1053 0 0 0
1456 4 0.361547 10.5 2.36422 15.0896 0 0 0
1463 4 0.376146 8.88141 4.2593 15.1731 0 0 0
909 3 -0.746195 16.1751 1.38713 13.2816 0 0 0
910 3 -0.752932 14.8918 5.26444 13.2342 0 0 0
941 4 0.382043 16.7755 2.14859 11.325 0 0 0
943 4 0.313911 16.728 4.09215 13.5754 -1 0 0
950 4 0.371658 16.9908 0.879495 13.1056 0 0 0
951 4 0.279665 15.558 0.672675 13.4231 0 0 0
952 4 0.324834 14.0566 5.67261 13.227 0 0 0
1075 3 -0.786919 11.9103 4.32218 13.8796 0 0 0
1078 3 -0.828538 13.5511 2.42486 12.5617 0 0 0
1096 4 0.356691 11.928 4.91476 11.318 0 0 0
1110 4 0.391033 12.3568 3.62963 13.4658 0 0 0
1116 4 0.370627 14.4049 2.50601 12.7918 0 0 0
1117 4 0.274704 13.3725 1.54906 12.8205 0 0 0
1243 2 1.32633 11.9384 4.3615 16.4239 0 0 0
1310 3 -0.938233 13.7654 1.41696 16.0084 0 0 0
1311 3 -1.03922 16.4182 2.43589 16.0042 0 0 0
1318 3 -1.05332 14.2394 4.20661 15.9863 0 0 0
1335 4 0.333566 13.5828 1.47858 15.1063 0 0 0
1336 4 0.38367 16.2786 2.36358 15.0899 0 0 0
1343 4 0.374955 14.6543 4.26226 15.173 0 0 0
1451 4 0.168475 12.8257 39.6982 13.2377 0 0 0
1038 4 0.375126 3.99836 5.88826 13.0291 0 0 0
1134 3 -1.0566 1.95445 7.36908 16.0804 0 0 0
1149 4 0.164593 1.24458 9.91528 13.2367 0 0 0
1150 4 0.179015 1.63386 7.75354 13.2492 0 0 0
1151 3 -0.639715 2.00603 8.93903 13.4716 0 0 0
1158 4 0.317471 1.7955 7.33514 15.1669 0 0 0
1162 4 0.317168 0.10017 9.12123 15.2225 0 0 0
1184 2 1.26092 3.26083 9.2991 16.468 0 0 0
1192 3 -0.79579 5.09273 6.41113 16.0144 0 0 0
1198 3 -0.82533 5.57157 9.1863 16.0522 0 0 0
1202 3 -0.853492 4.87923 7.43738 12.5592 0 0 0
1217 4 0.33667 4.95618 6.50457 15.1053 0 0 0
1229 4 0.314607 4.37638 8.06223 13.0108 0 0 0
1230 4 0.41951 5.72553 7.55066 12.8818 0 0 0
1609 3 -0.75531 4.6358 11.3145 13.2818 0 0 0
1650 4 0.375675 5.45104 10.8064 13.1053 0 0 0
1651 4 0.28168 4.01862 10.5992 13.4231 0 0 0
1121 4 0.387713 9.7732 5.88842 13.0292 0 0 0
1194 3 -0.81782 7.72902 7.36826 16.0842 0 0 0
1209 3 -0.587513 6.95106 10.0016 13.2177 0 0 0
1210 3 -0.639545 9.07917 9.16835 13.9977 0 0 0
1211 3 -0.553074 7.3759 7.64944 13.2306 0 0 0
1212 5 0.504573 7.78074 8.9357 13.4702 0 0 0
1219 4 0.384837 7.56774 7.33465 15.1687 0 0 0
1223 4 0.355082 5.87586 9.11847 15.2224 0 0 0
1245 2 1.33377 9.03729 9.29961 16.4704 0 0 0
1253 3 -1.03829 10.8684 6.41258 16.0112 0 0 0
1259 3 -1.0477 11.3483 9.18615 16.0502 0 0 0
1263 3 -0.85557 10.66 7.43643 12.559 0 0 0
1277 4 0.355354 10.7284 6.50182 15.1062 0 0 0
1289 4 0.388708 10.1533 8.0607 13.0107 0 0 0
1290 4 0.301169 11.4974 7.551 12.8817 0 0 0
1694 3 -0.744996 10.4139 11.3157 13.2809 0 0 0
1734 4 0.26648 11.2252 10.8068 13.1063 0 0 0
1735 4 0.380932 9.7925 10.6005 13.4235 0 0 0
953 4 0.374308 15.5473 5.8883 13.0291 0 0 0
1124 2 1.28059 14.8114 9.29901 16.4683 0 0 0
1132 3 -1.03709 16.6422 6.41265 16.0113 -1 0 0
1138 3 -1.05851 17.1225 9.18607 16.0497 -1 0 0
1142 3 -0.844978 16.4333 7.4376 12.5602 0 0 0
1156 4 0.34201 16.5034 6.50174 15.1062 -1 0 0
1168 4 0.304072 15.927 8.06177 13.0109 0 0 0