LAMMPS data file via write_data, version 3 Mar 2020, timestep = 200000

231 atoms
5 atom types
154 bonds
2 bond types
81 angles
2 angle types

0.0000000000000000e+00 1.3000000000000000e+01 xlo xhi
0.0000000000000000e+00 1.3000000000000000e+01 ylo yhi
0.0000000000000000e+00 1.3000000000000000e+01 zlo zhi

Masses

1 6.941
2 10.811
3 18.998
4 1.008
5 15.999

Bond Coeffs # harmonic

1 386.592 1.394
2 517.63 1

Angle Coeffs # harmonic

1 80.0072 109.5
2 37.9505 109.47

Atoms # full

1 1 1 8.0000000000000004e-01 1.1366627583311661e+01 3.3547327649345542e+00 8.7030186328108137e+00 0 0 0
2 2 2 7.6800000000000002e-01 1.0088947735216882e+01 3.9009482549197112e+00 1.0917059461151313e+01 0 0 -1
3 2 3 -3.9200000000000002e-01 1.0215331844404336e+01 5.0513846136809013e+00 1.1604912406349765e+01 0 0 -1
4 2 3 -3.9200000000000002e-01 1.1333996934218453e+01 3.2423712667738758e+00 1.0741510890174089e+01 0 0 -1
5 2 3 -3.9200000000000002e-01 9.3405194343254916e+00 3.0096939397078075e+00 1.1635272747311461e+01 0 0 -1
6 2 3 -3.9200000000000002e-01 9.4915158345230815e+00 4.1522839522983430e+00 9.7265763114541013e+00 0 0 -1
7 3 4 4.2380000000000001e-01 1.1517197307798183e+01 9.8694540312258088e+00 1.0394972977302961e+00 1 -1 1
8 3 5 -8.4760000000000002e-01 1.1327529420608359e+01 8.9185701507829691e+00 7.9486226135579696e-01 1 -1 1
9 3 4 4.2380000000000001e-01 1.1668495610108561e+01 8.8083348004342561e+00 1.2861271729860064e+01 1 -1 0
10 4 4 4.2380000000000001e-01 1.5548182981975838e+00 4.1380691921866450e+00 4.9492975655838762e+00 0 0 0
11 4 5 -8.4760000000000002e-01 6.0459020269044150e-01 3.8537574832258068e+00 5.0767080503821083e+00 0 0 0
12 4 4 4.2380000000000001e-01 1.2577561012121036e-01 4.0728851315315460e+00 4.2265776527651848e+00 0 0 0
13 5 4 4.2380000000000001e-01 1.9138442861768160e-01 9.9257868893477958e+00 6.4232990921506223e+00 1 -1 -1
14 5 5 -8.4760000000000002e-01 1.2208141974866482e+01 9.7778238072508863e+00 6.3167947161169424e+00 0 -1 -1
15 5 4 4.2380000000000001e-01 1.2167124948842282e+01 9.7938418153757620e+00 5.3177644597718716e+00 0 -1 -1
16 6 4 4.2380000000000001e-01 9.9043538208493000e+00 1.1795917814998173e+01 1.0134263611914937e+01 -1 -1 1
17 6 5 -8.4760000000000002e-01 1.0113714416550867e+01 1.0863579254555834e+01 9.8394530767081925e+00 -1 -1 1
18 6 4 4.2380000000000001e-01 1.0692633140730234e+01 1.0559120357470473e+01 1.0595864229421288e+01 -1 -1 1
19 7 4 4.2380000000000001e-01 1.0683255430549659e+01 9.7812588069641937e-01 7.3962459412459429e+00 -1 0 0
20 7 5 -8.4760000000000002e-01 1.0176148866713733e+01 1.6664609217219208e+00 7.9149349907381277e+00 -1 0 0
21 7 4 4.2380000000000001e-01 9.5585117807394653e+00 2.0219002471362044e+00 7.2133733114098453e+00 -1 0 0
22 8 4 4.2380000000000001e-01 1.4665566734273967e+00 6.8513259918667204e+00 7.8192651863042757e+00 1 0 0
23 8 5 -8.4760000000000002e-01 1.6685168816855751e+00 6.8678926280888302e+00 8.7985198164430702e+00 1 0 0
24 8 4 4.2380000000000001e-01 2.6320666188735067e+00 6.6006959574994815e+00 8.8118605225987086e+00 1 0 0
25 9 4 4.2380000000000001e-01 5.9697984895858465e+00 5.7468920352640378e+00 5.7706125485492743e+00 0 1 0
26 9 5 -8.4760000000000002e-01 6.8052602344058561e+00 5.1988530215606605e+00 5.8113177353431613e+00 0 1 0
27 9 4 4.2380000000000001e-01 6.6339772280739995e+00 4.7079303970724471e+00 4.9571179512138634e+00 0 1 0
28 10 4 4.2380000000000001e-01 1.2312923025101699e+00 1.0376562699365719e+00 4.8810682328347905e+00 1 1 1
29 10 5 -8.4760000000000002e-01 9.0617323932758920e-01 1.4170664900560268e+00 5.7472929469744631e+00 1 1 1
30 10 4 4.2380000000000001e-01 6.1090874192523059e-01 2.3415299562997873e+00 5.5060752890330331e+00 1 1 1
31 11 4 4.2380000000000001e-01 1.2826292142318907e+00 9.3925783459749699e+00 1.2712620301772812e+01 1 -1 -1
32 11 5 -8.4760000000000002e-01 1.6417565280978466e+00 1.0083094297715947e+01 3.4048587506757566e-01 1 -1 0
33 11 4 4.2380000000000001e-01 2.5916446780558240e+00 9.8300483033527915e+00 5.2400746052102765e-01 1 -1 0
34 12 4 4.2380000000000001e-01 3.7744307719305241e+00 1.1896789663120755e+01 1.0897195465437427e+01 0 -1 -1
35 12 5 -8.4760000000000002e-01 3.5199670827015059e+00 1.1705304517354584e+01 9.9492599355161531e+00 0 -1 -1
36 12 4 4.2380000000000001e-01 2.5724460072624287e+00 1.1386719327889416e+01 9.9758485967942558e+00 0 -1 -1
37 13 4 4.2380000000000001e-01 6.4543611699443320e+00 3.9935542092507226e+00 9.0493398819799431e+00 -2 -2 -2
38 13 5 -8.4760000000000002e-01 6.5291489480868190e+00 4.7723291837039383e+00 9.6721701095688424e+00 -2 -2 -2
39 13 4 4.2380000000000001e-01 7.3697775295889700e+00 5.2398289512570182e+00 9.3986968713338968e+00 -2 -2 -2
40 14 4 4.2380000000000001e-01 2.9578536363168220e+00 3.1779207079237906e+00 1.1750795273549141e+01 1 1 -1
41 14 5 -8.4760000000000002e-01 2.6585086210318831e+00 3.5628615249048470e+00 1.2623843959433813e+01 1 1 -1
42 14 4 4.2380000000000001e-01 2.3320603444706363e+00 2.6736943724950648e+00 1.2944490167993782e+01 1 1 -1
43 15 4 4.2380000000000001e-01 4.8318458475090651e+00 9.7252365587110710e+00 2.7572248412245548e+00 1 0 2
44 15 5 -8.4760000000000002e-01 4.0883097484971875e+00 9.1258325601929826e+00 2.4607976855181453e+00 1 0 2
45 15 4 4.2380000000000001e-01 4.4641198853229689e+00 8.4525869978782744e+00 1.8240024388311253e+00 1 0 2
46 16 4 4.2380000000000001e-01 5.4498078175406421e+00 5.0729018438937166e+00 1.1249448227890538e+01 2 -1 1
47 16 5 -8.4760000000000002e-01 5.0494229111663875e+00 5.2849224073550083e+00 1.2140930069111441e+01 2 -1 1
48 16 4 4.2380000000000001e-01 4.2808273301181590e+00 4.6461232922231313e+00 1.2175523585863358e+01 2 -1 1
49 17 4 4.2380000000000001e-01 1.8020628079217715e-01 8.0014693193696047e+00 8.5879795182300107e+00 1 1 0
50 17 5 -8.4760000000000002e-01 1.2288009522492604e+01 8.4370766993870401e+00 8.7072738091830644e+00 0 1 0
51 17 4 4.2380000000000001e-01 1.1990825905628492e+01 8.5478722811874341e+00 7.7589032370507018e+00 0 1 0
52 18 4 4.2380000000000001e-01 8.9894626187454048e+00 1.2878917245063580e+01 4.1098542777657556e+00 0 0 1
53 18 5 -8.4760000000000002e-01 8.0529065787979093e+00 2.1834598546653117e-01 4.0223784653990542e+00 0 1 1
54 18 4 4.2380000000000001e-01 8.0917612821333584e+00 9.9131655557097642e-01 3.3891277503319794e+00 0 1 1
55 19 4 4.2380000000000001e-01 7.2411666355502078e+00 8.9082003272760826e+00 9.7667980322604269e+00 2 -1 0
56 19 5 -8.4760000000000002e-01 6.4090206374912464e+00 9.4623905196830354e+00 9.7466149149406540e+00 2 -1 0
57 19 4 4.2380000000000001e-01 6.1528061683517956e+00 9.0802839835737181e+00 8.8587241370409764e+00 2 -1 0
58 20 4 4.2380000000000001e-01 1.1227814245894066e+01 5.6410681090072154e+00 1.2944328154059129e+01 1 1 -3
59 20 5 -8.4760000000000002e-01 1.1691727581648493e+01 6.0162225508600180e+00 7.4685146173866801e-01 1 1 -2
60 20 4 4.2380000000000001e-01 1.1445126144249642e+01 6.9822273285467276e+00 8.2446115816791976e-01 1 1 -2
61 21 4 4.2380000000000001e-01 4.6629286809937751e+00 8.7581319639256687e+00 1.0884847983104210e+01 0 0 -1
62 21 5 -8.4760000000000002e-01 3.9210159046463287e+00 8.5225846831154364e+00 1.1512608379238326e+01 0 0 -1
63 21 4 4.2380000000000001e-01 4.5340296599800576e+00 8.2137898845138988e+00 1.2239836872524521e+01 0 0 -1
64 22 4 4.2380000000000001e-01 7.9294699986188668e+00 2.2665117925113165e-02 8.9754848997572734e-01 -1 1 1
65 22 5 -8.4760000000000002e-01 8.2718054407519670e+00 1.2109430413342379e+01 6.7661538783485398e-01 -1 0 1
66 22 4 4.2380000000000001e-01 7.5311904738495512e+00 1.1635201202040330e+01 2.0059371841451101e-01 -1 0 1
67 23 4 4.2380000000000001e-01 7.2577457397998728e+00 1.0264177471656378e+01 3.4354656528104224e+00 0 0 1
68 23 5 -8.4760000000000002e-01 6.4179444728301176e+00 1.0791137389344062e+01 3.5660311372591793e+00 0 0 1
69 23 4 4.2380000000000001e-01 6.7849571204304500e+00 1.1664703497364362e+01 3.8856942234732048e+00 0 0 1
70 24 4 4.2380000000000001e-01 1.1386291367247235e+01 5.5965534348462018e+00 6.8443724365501923e+00 -1 0 0
71 24 5 -8.4760000000000002e-01 1.1419762564840775e+01 4.6074139265404472e+00 6.9874902618826988e+00 -1 0 0
72 24 4 4.2380000000000001e-01 1.1894867403739713e+01 4.2634085759819120e+00 6.1775915254854477e+00 -1 0 0
73 25 4 4.2380000000000001e-01 4.2334552102370946e+00 5.6363619011048005e+00 3.3336808341763748e+00 0 1 0
74 25 5 -8.4760000000000002e-01 4.4794162727643645e+00 5.9154916946583063e+00 4.2619003656290708e+00 0 1 0
75 25 4 4.2380000000000001e-01 3.7037709575980302e+00 6.4994436030583502e+00 4.5014315452928821e+00 0 1 0
76 26 4 4.2380000000000001e-01 5.5459990755102462e+00 1.0546381584861034e+01 5.5056575333540225e+00 -1 -1 -1
77 26 5 -8.4760000000000002e-01 5.2074409506975154e+00 1.0886639242315050e+01 6.3829278371103726e+00 -1 -1 -1
78 26 4 4.2380000000000001e-01 4.5183714452832469e+00 1.1535369171192883e+01 6.0599192262611830e+00 -1 -1 -1
79 27 4 4.2380000000000001e-01 2.5618000157066665e+00 6.9866926221535204e+00 1.1517761389900398e+01 1 -1 -1
80 27 5 -8.4760000000000002e-01 1.6430334976992165e+00 6.6028121735053649e+00 1.1609979233075899e+01 1 -1 -1
81 27 4 4.2380000000000001e-01 1.6910074757224827e+00 5.7434783137221332e+00 1.1100819463940969e+01 1 -1 -1
82 28 4 4.2380000000000001e-01 1.2235286072653574e+01 8.0943837918302570e+00 1.0489169839871376e+01 -1 -1 1
83 28 5 -8.4760000000000002e-01 1.2411533157193851e+01 8.0590599477606091e+00 1.1472882111169968e+01 -1 -1 1
84 28 4 4.2380000000000001e-01 1.4692699631140940e-01 7.3851632104213891e+00 1.1544019590086066e+01 0 -1 1
85 29 4 4.2380000000000001e-01 5.4354511539046602e+00 7.3452933564614620e+00 4.5289093275335564e+00 1 0 -1
86 29 5 -8.4760000000000002e-01 5.9211877778506334e+00 7.9283428362078361e+00 5.1801494522636853e+00 1 0 -1
87 29 4 4.2380000000000001e-01 6.8895662461361722e+00 7.7597664905984498e+00 4.9962320848018367e+00 1 0 -1
88 30 4 4.2380000000000001e-01 2.6666827534532094e+00 4.3637478183540085e-01 3.1550909563618337e+00 1 0 0
89 30 5 -8.4760000000000002e-01 1.7708029397817788e+00 8.7753546747446187e-01 3.2077929073687628e+00 1 0 0
90 30 4 4.2380000000000001e-01 1.6439068658651375e+00 9.7329598697957576e-01 2.2205098352493753e+00 1 0 0
91 31 4 4.2380000000000001e-01 7.6438947266891271e+00 2.3094719318960086e+00 9.8284064351785627e-01 0 0 0
92 31 5 -8.4760000000000002e-01 7.2590128906807561e+00 1.4240543876436302e+00 1.2434200751468232e+00 0 0 0
93 31 4 4.2380000000000001e-01 6.4315056241012254e+00 1.3285755389572540e+00 6.9014240366404711e-01 0 0 0
94 32 4 4.2380000000000001e-01 2.1822728597195349e+00 9.8254558785759638e+00 7.7460827710928504e+00 1 0 0
95 32 5 -8.4760000000000002e-01 1.8182604027473619e+00 1.0031438514493738e+01 6.8377511202212391e+00 1 0 0
96 32 4 4.2380000000000001e-01 2.4440016632986881e+00 1.0632737285280024e+01 6.3408733330916291e+00 1 0 0
97 33 4 4.2380000000000001e-01 1.1912325541168947e+01 7.4050441505967015e+00 4.3433424256488564e+00 -2 -1 0
98 33 5 -8.4760000000000002e-01 1.1597589877312988e+01 6.6995823773703540e+00 4.9783745216615465e+00 -2 -1 0
99 33 4 4.2380000000000001e-01 1.0900450115480725e+01 6.1501267631676928e+00 4.5178352486738360e+00 -2 -1 0
100 34 4 4.2380000000000001e-01 6.8805919821813593e+00 1.1155059082733660e+01 8.0290682318459154e+00 0 0 0
101 34 5 -8.4760000000000002e-01 7.4337875639336151e+00 1.1889548061466446e+01 8.4221339560798079e+00 0 0 0
102 34 4 4.2380000000000001e-01 8.3477584182887377e+00 1.1660800431339904e+01 8.0869741764807674e+00 0 0 0
103 35 4 4.2380000000000001e-01 7.5223416691377558e+00 4.0497616749889298e+00 2.3271770515519070e+00 0 0 -1
104 35 5 -8.4760000000000002e-01 7.5755950792509754e+00 3.7168362154454413e+00 3.2686257589631627e+00 0 0 -1
105 35 4 4.2380000000000001e-01 6.7141306117404493e+00 3.2096925404026608e+00 3.2948049634503578e+00 0 0 -1
106 36 4 4.2380000000000001e-01 8.9041294814934719e+00 4.6671743966520900e+00 3.7164221728246938e+00 -1 -1 -2
107 36 5 -8.4760000000000002e-01 9.6172605418546944e+00 5.3318438737400875e+00 3.9392675284849745e+00 -1 -1 -2
108 36 4 4.2380000000000001e-01 9.1644330833308594e+00 6.1191085302802186e+00 3.5207431354086793e+00 -1 -1 -2
109 37 4 4.2380000000000001e-01 9.7715700319278671e+00 1.0829557815209036e+01 3.1016943353417332e+00 0 -1 1
110 37 5 -8.4760000000000002e-01 9.0634713550179118e+00 1.0383692114346331e+01 2.5541542737896656e+00 0 -1 1
111 37 4 4.2380000000000001e-01 8.7930303017123688e+00 1.1004325330407525e+01 1.8181666275915653e+00 0 -1 1
112 38 4 4.2380000000000001e-01 5.0396300295774070e+00 9.3354364120111644e+00 7.1277467366177190e+00 1 -1 1
113 38 5 -8.4760000000000002e-01 5.3280841151541445e+00 8.4718368929279499e+00 7.5412559666210202e+00 1 -1 1
114 38 4 4.2380000000000001e-01 5.5537704739228291e+00 8.0036432329008367e+00 6.6869374555119236e+00 1 -1 1
115 39 4 4.2380000000000001e-01 1.4893648864990014e-01 6.6038998573648664e+00 5.8453074845961632e+00 0 0 0
116 39 5 -8.4760000000000002e-01 1.1161659607768926e+00 6.7605545754062355e+00 6.0451253906586171e+00 0 0 0
117 39 4 4.2380000000000001e-01 1.4710926914986004e+00 7.4165349997133188e+00 5.3790043161622991e+00 0 0 0
118 40 4 4.2380000000000001e-01 5.0872175731667237e+00 1.1758999739444583e+01 1.2460373321398968e+01 0 0 0
119 40 5 -8.4760000000000002e-01 4.2990990222727801e+00 1.2227520210640227e+01 1.2859570721511453e+01 0 0 0
120 40 4 4.2380000000000001e-01 4.6600990130998836e+00 1.5894222819327719e-01 1.2905758099935770e+01 0 1 0
121 41 4 4.2380000000000001e-01 4.7894794718962492e+00 6.9430557934630297e+00 8.2297974293629554e+00 0 -1 1
122 41 5 -8.4760000000000002e-01 4.5555076519216264e+00 5.9753374289835461e+00 8.3234955712436385e+00 0 -1 1
123 41 4 4.2380000000000001e-01 5.3836361264867154e+00 5.6522185579191895e+00 8.7815330007709100e+00 0 -1 1
124 42 4 4.2380000000000001e-01 1.2740062660156581e+00 7.2891520443468742e+00 5.4372259949499313e-01 0 0 1
125 42 5 -8.4760000000000002e-01 1.1487587421828058e+00 6.7798451367049521e+00 1.3951446878177549e+00 0 0 1
126 42 4 4.2380000000000001e-01 4.1310117605596375e-01 6.1551602255917190e+00 1.1332715034534671e+00 0 0 1
127 43 4 4.2380000000000001e-01 1.2690155047461939e+01 3.1112698045545020e-02 6.2291053077625955e+00 -1 1 0
128 43 5 -8.4760000000000002e-01 1.1850845520801169e+01 1.2740760330751012e+01 6.6887306538480766e+00 -1 0 0
129 43 4 4.2380000000000001e-01 1.2112184869167500e+01 1.2136470844405356e+01 7.4414164623410031e+00 -1 0 0
130 44 4 4.2380000000000001e-01 1.1687783550484179e+01 7.7096901019484532e-01 1.2704131909162356e+01 -1 0 -1
131 44 5 -8.4760000000000002e-01 1.2156251895162129e+01 1.5821851903427639e+00 5.4083604968554050e-02 -1 0 0
132 44 4 4.2380000000000001e-01 1.1968078522821905e+01 2.2987385298250205e+00 1.2382412469101821e+01 -1 0 -1
133 45 4 4.2380000000000001e-01 1.1824074048127713e+01 1.1347652888464161e+01 9.3625351057214807e+00 0 -1 -1
134 45 5 -8.4760000000000002e-01 1.2801867558740756e+01 1.1463330805194582e+01 9.5372879564108501e+00 0 -1 -1
135 45 4 4.2380000000000001e-01 2.4315233817172180e-01 1.0576222521175840e+01 9.4019847571972530e+00 1 -1 -1
136 46 4 4.2380000000000001e-01 8.6205196453757615e+00 7.3916483340230723e+00 6.4617183703941627e+00 0 -1 -1
137 46 5 -8.4760000000000002e-01 8.6518963433047915e+00 8.1171379193645201e+00 5.7742009219524837e+00 0 -1 -1
138 46 4 4.2380000000000001e-01 8.9218865139497989e+00 8.9743608953242102e+00 6.2126922643374449e+00 0 -1 -1
139 47 4 4.2380000000000001e-01 5.9353002263609307e+00 1.7493989398867016e+00 8.2563207048197800e+00 1 1 0
140 47 5 -8.4760000000000002e-01 6.0153069331221394e+00 2.6431285001365432e+00 7.8149056717179075e+00 1 1 0
141 47 4 4.2380000000000001e-01 5.2136351602648343e+00 2.6034765743049082e+00 7.2184577308766800e+00 1 1 0
142 48 4 4.2380000000000001e-01 1.1297275418571934e+01 1.1764902138624242e+01 1.2765675131713193e+01 0 0 0
143 48 5 -8.4760000000000002e-01 1.0665041551121019e+01 1.2303195769759970e+01 1.2208431467539564e+01 0 0 0
144 48 4 4.2380000000000001e-01 9.8337379386114598e+00 1.2354379377152426e+01 1.2761889576176516e+01 0 0 0
145 49 4 4.2380000000000001e-01 3.7873049877770776e-01 1.1295153933654914e+01 9.2725493743848819e-01 0 1 0
146 49 5 -8.4760000000000002e-01 1.2452385060243094e+01 1.1410903586572893e+01 1.2857057633480922e+00 -1 1 0
147 49 4 4.2380000000000001e-01 1.2612307797993921e+01 1.2264482146446255e+01 1.7815166569906591e+00 -1 1 0
148 50 4 4.2380000000000001e-01 1.0490751818719010e+01 1.0292134926470490e+01 7.0314229075263244e+00 1 -1 1
149 50 5 -8.4760000000000002e-01 9.5444906744070934e+00 1.0369820066109389e+01 7.3453580911218133e+00 1 -1 1
150 50 4 4.2380000000000001e-01 9.7597284594762659e+00 1.0334642135931928e+01 8.3212867598888707e+00 1 -1 1
151 51 4 4.2380000000000001e-01 2.6011063764857165e+00 1.5975055553499975e+00 1.0154804204099760e+01 0 1 0
152 51 5 -8.4760000000000002e-01 3.2618891942200334e+00 2.3408443163839765e+00 1.0258796649470366e+01 0 1 0
153 51 4 4.2380000000000001e-01 2.8818343316658015e+00 2.9129838220757378e+00 9.5320124969162539e+00 0 1 0
154 52 4 4.2380000000000001e-01 8.2667472433821665e+00 4.0583051445859537e+00 6.1891081945221487e+00 0 1 0
155 52 5 -8.4760000000000002e-01 8.4680132157889254e+00 3.3197056581445787e+00 6.8325076424832947e+00 0 1 0
156 52 4 4.2380000000000001e-01 7.5599158255574581e+00 3.0474292203874507e+00 7.1506672750720668e+00 0 1 0
157 53 4 4.2380000000000001e-01 5.1452592544200622e+00 1.2620054687630817e+00 3.3857761616238240e+00 -1 0 0
158 53 5 -8.4760000000000002e-01 5.7413140446306254e+00 1.8967296206220017e+00 3.8775527977803517e+00 -1 0 0
159 53 4 4.2380000000000001e-01 6.3259630310584489e+00 1.2446958000815311e+00 4.3602925780083623e+00 -1 0 0
160 54 4 4.2380000000000001e-01 3.3872227876857917e+00 4.5454794114285137e+00 1.1054270223379572e+00 0 0 0
161 54 5 -8.4760000000000002e-01 3.3342814235270941e+00 5.3059230867633067e+00 1.7526694482909109e+00 0 0 0
162 54 4 4.2380000000000001e-01 2.4619925017120456e+00 5.7148934442992099e+00 1.4846095135585431e+00 0 0 0
163 55 4 4.2380000000000001e-01 4.3707403268103171e+00 1.2662146426849295e+01 8.8633592866598203e+00 -1 -1 0
164 55 5 -8.4760000000000002e-01 5.0010612761115905e+00 1.9963656216591372e-01 8.3031789553835740e+00 -1 0 0
165 55 4 4.2380000000000001e-01 5.8542387812192862e+00 1.2695012735834382e+01 8.4352539563626383e+00 -1 -1 0
166 56 4 4.2380000000000001e-01 9.1173209273672402e+00 7.9053084482969380e+00 3.9716821772087507e+00 1 0 1
167 56 5 -8.4760000000000002e-01 8.9065449301040811e+00 7.8010639901497330e+00 2.9997217077306164e+00 1 0 1
168 56 4 4.2380000000000001e-01 8.7980264762344920e+00 8.7699185049081301e+00 2.7771303450175244e+00 1 0 1
169 57 4 4.2380000000000001e-01 2.4874012466878206e+00 5.4660460409546717e-02 1.7643180603946007e-01 0 0 1
170 57 5 -8.4760000000000002e-01 1.9800144768814054e+00 8.5984659568569211e-01 4.8340772168020651e-01 0 0 1
171 57 4 4.2380000000000001e-01 1.1038126505999379e+00 7.3342394128350452e-01 1.8340253451784135e-02 0 0 1
172 58 4 4.2380000000000001e-01 1.1416396119390364e+00 3.3820950887400767e+00 8.3770992414400478e+00 0 0 -1
173 58 5 -8.4760000000000002e-01 4.6626319257792437e-01 2.6446614267611008e+00 8.3693933107224403e+00 0 0 -1
174 58 4 4.2380000000000001e-01 6.9220797300072878e-01 2.1695356316834813e+00 7.5189787625044042e+00 0 0 -1
175 59 4 4.2380000000000001e-01 1.1247189313151503e+01 1.1233138752739685e-01 3.7468758056955807e+00 0 2 1
176 59 5 -8.4760000000000002e-01 1.0689305611624114e+01 1.2413045353170357e+01 4.1938294364463662e+00 0 1 1
177 59 4 4.2380000000000001e-01 1.1090925721229523e+01 1.2326199470407976e+01 5.1055088945744300e+00 0 1 1
178 60 4 4.2380000000000001e-01 1.1730221134200765e+01 1.4431757805403362e+00 1.8176739694488189e+00 -1 0 1
179 60 5 -8.4760000000000002e-01 1.1781079354374484e+01 1.2834523325590654e+00 2.8035251188077801e+00 -1 0 1
180 60 4 4.2380000000000001e-01 1.2155260555451262e+01 2.1253621377432781e+00 3.1923391347412493e+00 -1 0 1
181 61 4 4.2380000000000001e-01 6.4332064494986829e+00 7.8168996669692516e+00 3.7962993516763532e-01 0 1 2
182 61 5 -8.4760000000000002e-01 5.4625081354041383e+00 7.6446313356024165e+00 5.4716867523685242e-01 0 1 2
183 61 4 4.2380000000000001e-01 5.2489415424829060e+00 6.6982401496548860e+00 3.0481750356649406e-01 0 1 2
184 62 4 4.2380000000000001e-01 6.4396179871382655e+00 1.0225172655503430e+01 1.1241577377817217e+01 1 1 0
185 62 5 -8.4760000000000002e-01 6.3723174959526423e+00 1.0450974965181107e+01 1.2213424105315552e+01 1 1 0
186 62 4 4.2380000000000001e-01 6.7924120454457491e+00 9.5953133789025831e+00 1.2515689603531483e+01 1 1 0
187 63 4 4.2380000000000001e-01 2.6415903220376280e+00 2.8641476564678758e-01 5.9302520400205081e+00 2 1 1
188 63 5 -8.4760000000000002e-01 3.4988910311450563e+00 1.2771602705008158e+01 5.9282242538375991e+00 2 0 1
189 63 4 4.2380000000000001e-01 4.0138939722119797e+00 1.2719496289229454e-01 6.7081775200747042e+00 2 1 1
190 64 4 4.2380000000000001e-01 7.8063912892614251e+00 5.5915727065910144e+00 7.3472791327082909e+00 0 1 -1
191 64 5 -8.4760000000000002e-01 8.4831348769434367e+00 5.9349315063784349e+00 7.9985269362804052e+00 0 1 -1
192 64 4 4.2380000000000001e-01 8.8770324800328329e+00 5.1096508621131687e+00 8.4031962047332804e+00 0 1 -1
193 65 4 4.2380000000000001e-01 3.4081186978713931e+00 4.8762804066371217e+00 8.0683514819944531e+00 0 0 0
194 65 5 -8.4760000000000002e-01 2.7580677496851833e+00 4.1164819021303245e+00 8.0802722263774633e+00 0 0 0
195 65 4 4.2380000000000001e-01 3.0458064357979788e+00 3.7996389825887511e+00 7.1764921462542679e+00 0 0 0
196 66 4 4.2380000000000001e-01 1.2202886556400813e+01 4.7674890220790180e+00 2.0173626141855658e+00 0 0 0
197 66 5 -8.4760000000000002e-01 1.2062170702392667e+01 4.3499426580477891e+00 2.9150565582580654e+00 0 0 0
198 66 4 4.2380000000000001e-01 1.1106417067190126e+01 4.5615163781829482e+00 3.1194386294836898e+00 0 0 0
199 67 4 4.2380000000000001e-01 8.2247953425501059e+00 1.6901086152475226e+00 1.0326787542529587e+01 -2 2 0
200 67 5 -8.4760000000000002e-01 7.6070149297351906e+00 9.4439884904731142e-01 1.0576315346085210e+01 -2 2 0
201 67 4 4.2380000000000001e-01 7.6865468856982737e+00 3.5893823405206959e-01 9.7695249445709020e+00 -2 2 0
202 68 4 4.2380000000000001e-01 6.1766763245662970e+00 1.3740134168594476e+00 1.1706757631915565e+01 0 0 0
203 68 5 -8.4760000000000002e-01 5.3742442544140099e+00 1.5517800600982590e+00 1.2276409604700547e+01 0 0 0
204 68 4 4.2380000000000001e-01 4.7347842918419323e+00 1.8471412609731142e+00 1.1566583477122297e+01 0 0 0
205 69 4 4.2380000000000001e-01 6.6096063981152380e+00 4.6873819351112420e+00 7.7659024503090257e-02 -1 1 1
206 69 5 -8.4760000000000002e-01 7.4139012317266451e+00 4.3185058075461784e+00 5.4353514449814777e-01 -1 1 1
207 69 4 4.2380000000000001e-01 8.0555471266996399e+00 4.1131943894287302e+00 1.2804523752331201e+01 -1 1 0
208 70 4 4.2380000000000001e-01 8.7543202623549714e+00 8.1196062350374891e+00 2.6164690693562459e-01 -1 1 1
209 70 5 -8.4760000000000002e-01 8.0153068656316897e+00 8.2828999786866522e+00 1.2608045710948609e+01 -1 1 0
210 70 4 4.2380000000000001e-01 8.4227178171415744e+00 7.9746008600045819e+00 1.1748413049236241e+01 -1 1 0
211 71 4 4.2380000000000001e-01 4.9424583664923194e+00 1.2067482196590218e+01 2.9971795509049302e+00 -1 0 -1
212 71 5 -8.4760000000000002e-01 4.1856655118634647e+00 1.2661199496523214e+01 2.7237486506513315e+00 -1 0 -1
213 71 4 4.2380000000000001e-01 3.7915185727449070e+00 1.2206070902562331e+01 1.9253088541811771e+00 -1 0 -1
214 72 4 4.2380000000000001e-01 1.9358472186144133e+00 7.2249730024565180e+00 2.9280316124812487e+00 -1 2 1
215 72 5 -8.4760000000000002e-01 2.2224849480452957e+00 7.6697160738446390e+00 3.7765854655196303e+00 -1 2 1
216 72 4 4.2380000000000001e-01 2.8389604963343791e+00 8.3835518566776965e+00 3.4443237563969760e+00 -1 2 1
217 73 4 4.2380000000000001e-01 3.5271649347758993e-01 1.3498370960806034e+00 9.9560366954369197e+00 1 0 1
218 73 5 -8.4760000000000002e-01 9.4486179927901170e-01 7.9425095331332485e-01 1.0539721650590298e+01 1 0 1
219 73 4 4.2380000000000001e-01 4.9783192933247056e-01 1.2900516171575177e+01 1.0502266632396919e+01 1 -1 1
220 74 4 4.2380000000000001e-01 2.8106428972049442e+00 9.0517517871750073e+00 1.0255953336100278e+01 1 -1 0
221 74 5 -8.4760000000000002e-01 2.0034752745491984e+00 9.2472470077086086e+00 9.6989409636190391e+00 1 -1 0
222 74 4 4.2380000000000001e-01 1.6331768529947590e+00 8.3517230503386557e+00 9.4521275641188591e+00 1 -1 0
223 75 4 4.2380000000000001e-01 9.3941912939568191e+00 8.6095323548829832e+00 9.4253967374003924e+00 -1 0 -3
224 75 5 -8.4760000000000002e-01 8.6850204283057337e+00 7.9732823382686471e+00 9.7291442101624668e+00 -1 0 -3
225 75 4 4.2380000000000001e-01 8.7440594561075731e+00 7.1465531749583935e+00 9.1696493100569754e+00 -1 0 -3
226 76 4 4.2380000000000001e-01 1.2240936432430631e+01 9.1360303659219078e+00 2.7086742948585583e+00 -1 1 0
227 76 5 -8.4760000000000002e-01 1.2596434681562581e+01 8.9545127568405896e+00 3.6255561923950674e+00 -1 1 0
228 76 4 4.2380000000000001e-01 5.8280355789599780e-01 8.8271843356843398e+00 3.5213255526031757e+00 0 1 0
229 77 4 4.2380000000000001e-01 4.1675591889948942e+00 4.3786106865110366e+00 5.2804994622943839e+00 0 0 0
230 77 5 -8.4760000000000002e-01 3.9004445854063303e+00 3.5192439260096933e+00 5.7165487091892961e+00 0 0 0
231 77 4 4.2380000000000001e-01 4.2040274883906248e+00 2.9241743129414242e+00 4.9724185010414264e+00 0 0 0

Velocities

1 7.6412236283320738e-03 -2.4909508932601711e-03 1.0964564913071124e-03
2 -3.4332294308278555e-03 -3.8001350053527721e-03 -1.2203864659705341e-02
3 -8.5698203208763590e-03 3.2740543118783619e-03 2.4109210843250694e-03
4 -3.0862009192841101e-03 2.2317751551026027e-03 4.1155811009301784e-03
5 -4.4362639818156435e-04 2.6801027950912005e-03 2.7192070874079355e-03
6 -9.9168853085968931e-03 3.8233132873606877e-04 6.8042216162388710e-04
7 6.9933851232042996e-03 -2.2551577291060622e-03 3.0878934634452432e-02
8 -1.9139111720136881e-03 7.3009551656683267e-03 6.2989070361696583e-04
9 -9.0231231900249013e-03 1.6848934773501863e-03 -1.3001910946886090e-03
10 -3.3110468362649889e-03 -7.7138994472348461e-03 4.7464894399484945e-04
11 -5.7462737991004903e-03 -5.9897404920316439e-04 -1.7606656395211351e-03
12 -3.3424664948155719e-03 1.4628018653507295e-02 8.2601268621340857e-04
13 3.6271169401674822e-03 -1.4253047277387266e-02 -7.7255304897459178e-03
14 4.5844933766783216e-04 1.9287695576364647e-03 -9.2828588729974111e-04
15 -2.4571376230945411e-02 -1.9802413459262230e-02 -1.7713364215872127e-04
16 2.9602264972037658e-03 -1.1985597644704187e-03 -7.7149816276850659e-04
17 1.0196973226706593e-03 -1.9619854484732215e-03 2.5260324636335176e-04
18 -1.1757541239478085e-02 -2.8221920428332489e-02 -5.7299853165488517e-04
19 -6.5576902662329928e-03 2.4786541383373354e-03 8.1663533375046077e-04
20 -2.9724810289170614e-03 3.6246223198524710e-03 2.8041643128868025e-03
21 -2.1426609886089999e-02 -6.9813738881489848e-03 1.3698943570787247e-02
22 -4.1533268929150884e-05 2.2756241057327809e-02 4.0081145415676468e-03
23 -5.6377500820384307e-04 4.9916321974590684e-03 4.4478236573443231e-03
24 -4.7995174825110169e-03 -1.0564103577059716e-02 -2.3511263102964064e-03
25 1.2161302539832053e-02 1.5146258591484349e-02 -2.3497732481555383e-02
26 3.3442298487327050e-03 2.9232372731334243e-03 -6.9187384812983187e-03
27 5.4783242685157579e-03 6.8367017905971552e-03 -9.5938032733609308e-03
28 2.3448951671161681e-02 1.4825903744296249e-02 1.1999681690494977e-02
29 -3.5206457471968484e-03 5.6049882016780250e-03 5.9244333746909673e-03
30 2.7311479853200274e-02 1.1516335580405466e-02 -8.9269273117778217e-03
31 -7.9754189200031255e-03 -2.4492841709024206e-03 1.4733272254324217e-02
32 2.5659021953584505e-03 7.1150383058264342e-03 -1.7871739648763802e-03
33 -4.8489433359155164e-03 -4.2352866938759502e-03 2.0979589502488242e-02
34 4.2725434888299975e-03 -7.7394758426230258e-04 1.8772570274565208e-03
35 -2.3254609540654470e-03 4.3116831136342576e-03 2.6217108413901613e-03
36 1.1900226238708124e-02 -3.7411631284422965e-02 7.8841503747249016e-03
37 -1.3956117865765557e-02 -1.5980866580614600e-03 -9.6762013379109353e-04
38 -1.3073196516748601e-04 -4.9641790606851323e-03 1.5774383616928775e-03
39 1.0953942945618493e-02 -1.8320026666091713e-02 1.2860157857275059e-02
40 8.3069809746485930e-03 3.2944420808369524e-03 8.7146669856159615e-03
41 -1.0116791203595248e-03 4.1855572714182276e-03 5.1369030251353443e-03
42 -1.2356292802520562e-02 4.2516403629556726e-03 -6.1606288357200119e-03
43 -4.8384757982884580e-03 2.5125266210408993e-02 -2.0614428688257361e-02
44 6.3303207982049663e-04 7.9055480561172412e-03 4.3978821962034278e-04
45 7.5121654312337090e-04 1.3658893390473416e-04 8.7060356658484710e-03
46 3.8018463240717787e-03 1.4384293989566433e-02 -1.2275957566282030e-03
47 2.4920604661716043e-03 -5.1613749646195039e-04 1.7109027548259613e-03
48 1.0748559673978990e-02 -1.0279109310365853e-02 5.0532460955380210e-03
49 -4.4946910420709538e-03 -1.6798982104136422e-02 -1.7301074068384499e-02
50 7.6258710383180963e-03 2.3402141417341667e-03 3.4316729160258795e-03
51 -1.0835136177210175e-03 -1.0978711483149481e-02 4.5783063100486047e-03
52 1.6465406955633796e-02 9.1408224156548368e-03 -3.0028294598116877e-03
53 1.1156111042717999e-02 -4.4343450648294223e-03 1.2980373115628956e-03
54 -3.3252692797941505e-02 2.0825549768021978e-02 2.9324802401342855e-02
55 8.9051398855456414e-03 8.4973979760969969e-03 6.8502452176783023e-04
56 2.9489411937257794e-03 -5.0581577674914456e-04 2.4630426717442270e-04
57 -1.0654626942546156e-02 -1.4712994125422554e-02 1.0308832496727555e-02
58 9.6067289466701298e-04 -3.5035060101142192e-02 1.5004612271574298e-02
59 -2.9806677913158208e-03 1.0470084729598847e-03 4.7843491787515839e-04
60 1.9153249131140568e-02 8.1268569982830881e-03 -1.7194784094977177e-02
61 -1.3431092948672146e-02 1.2016507869002189e-02 -1.3544600718584142e-02
62 1.0102770565254364e-03 -4.3848992093289615e-03 -2.7298077623663514e-03
63 2.0382104454942544e-02 -6.2779111916435914e-03 -1.9737620967332132e-02