LAMMPS data file via write_data, version 3 Mar 2020, timestep = 20000

231 atoms
5 atom types
154 bonds
2 bond types
81 angles
2 angle types

0.0000000000000000e+00 1.3000000000000000e+01 xlo xhi
0.0000000000000000e+00 1.3000000000000000e+01 ylo yhi
0.0000000000000000e+00 1.3000000000000000e+01 zlo zhi

Masses

1 6.941
2 10.811
3 18.998
4 1.008
5 15.999

Bond Coeffs # harmonic

1 386.592 1.394
2 517.63 1

Angle Coeffs # harmonic

1 80.0072 109.5
2 37.9505 109.47

Atoms # full

1 1 1 1.0000000000000000e+00 1.2301638304437387e-01 7.6177425419785596e+00 1.2381461502820592e+01 1 0 0
2 2 2 9.5999999999999996e-01 1.0638616851492230e+01 7.7697116450359385e+00 1.2077249073894011e+01 0 0 -1
3 2 3 -4.8999999999999999e-01 1.0202096069977818e+01 6.8150419142238707e+00 1.1139423000026140e+01 0 0 -1
4 2 3 -4.8999999999999999e-01 9.7003829951577352e+00 8.6476315641850814e+00 1.2464939852665038e+01 0 0 -1
5 2 3 -4.8999999999999999e-01 1.1163674680817463e+01 7.1299057354930380e+00 1.6655766187749041e-01 0 0 0
6 2 3 -4.8999999999999999e-01 1.1671967943982006e+01 8.5098662056658174e+00 1.1501162856138308e+01 0 0 -1
7 3 4 4.2380000000000001e-01 1.3791835058737483e+00 2.4014749329860665e+00 8.2950967959009869e+00 1 0 0
8 3 5 -8.4760000000000002e-01 2.2846655867280967e+00 2.3043240222336396e+00 7.8819805253359085e+00 1 0 0
9 3 4 4.2380000000000001e-01 2.1094270078191326e+00 2.7153560490360626e+00 6.9873611024294773e+00 1 0 0
10 4 4 4.2380000000000001e-01 7.3405099314948421e+00 1.2938910989312099e+01 7.8369929262036351e+00 0 0 0
11 4 5 -8.4760000000000002e-01 7.8550992652293505e+00 1.2383143591565553e+01 8.4899258483379416e+00 0 0 0
12 4 4 4.2380000000000001e-01 8.4932268276792318e+00 6.3792883599399886e-02 8.8498011408201211e+00 0 1 0
13 5 4 4.2380000000000001e-01 5.6166274476868807e+00 1.7227118259909527e-01 3.1406236145916573e+00 0 0 0
14 5 5 -8.4760000000000002e-01 5.5529272180513578e+00 1.2864425750238695e+01 4.0899253943901384e+00 0 -1 0
15 5 4 4.2380000000000001e-01 6.3083230623103006e+00 1.2224776798576896e+01 4.2321455611593866e+00 0 -1 0
16 6 4 4.2380000000000001e-01 6.9480780243336078e+00 7.2497902082244794e+00 1.1672240559174979e+01 0 0 0
17 6 5 -8.4760000000000002e-01 6.7621647272978178e+00 6.6289891477195022e+00 1.2433846264343090e+01 0 0 0
18 6 4 4.2380000000000001e-01 6.8593448081750514e+00 7.1752567460788761e+00 2.6580043610448917e-01 0 0 1
19 7 4 4.2380000000000001e-01 1.8685611074418724e+00 9.3155641228820052e+00 1.0643787848359700e+01 0 0 0
20 7 5 -8.4760000000000002e-01 1.4349157770236789e+00 8.8242638303392607e+00 1.1399152727846641e+01 0 0 0
21 7 4 4.2380000000000001e-01 2.2867943802613673e+00 8.4454036248645785e+00 1.1760772497737982e+01 0 0 0
22 8 4 4.2380000000000001e-01 9.6326138708733335e+00 5.4383281449666701e+00 1.1835577640362564e+01 0 0 -1
23 8 5 -8.4760000000000002e-01 9.5019122986914901e+00 4.4501176731885330e+00 1.1915313583662472e+01 0 0 -1
24 8 4 4.2380000000000001e-01 9.0835300165179955e+00 4.1611449253587507e+00 1.1054237120212559e+01 0 0 -1
25 9 4 4.2380000000000001e-01 4.7941279156833545e+00 8.1843183395933412e+00 6.6150071934467212e+00 0 0 0
26 9 5 -8.4760000000000002e-01 5.5527378708580377e+00 7.8158374096722101e+00 7.1523457978218827e+00 0 0 0
27 9 4 4.2380000000000001e-01 5.1370966480631024e+00 7.3712630212793533e+00 7.9458172152657705e+00 0 0 0
28 10 4 4.2380000000000001e-01 8.0739759192127725e+00 4.0272225969872499e+00 5.9782888441518738e+00 0 0 0
29 10 5 -8.4760000000000002e-01 8.4968501292565790e+00 3.1265210904569223e+00 5.8787133580966975e+00 0 0 0
30 10 4 4.2380000000000001e-01 8.3565104678760491e+00 2.8187931251299880e+00 4.9376453108655491e+00 0 0 0
31 11 4 4.2380000000000001e-01 8.6517370226038643e+00 1.0666010745605161e+00 3.4759925237881806e+00 -1 0 0
32 11 5 -8.4760000000000002e-01 7.9558073285591497e+00 1.7828339520848400e+00 3.4241008562145221e+00 -1 0 0
33 11 4 4.2380000000000001e-01 8.2185638916301702e+00 2.2198895845571691e+00 2.5639020003640827e+00 -1 0 0
34 12 4 4.2380000000000001e-01 6.0425359022552199e+00 1.0475922709896670e+01 1.2188636035346406e+01 0 -1 0
35 12 5 -8.4760000000000002e-01 5.5730645400477874e+00 9.8389789507553864e+00 1.2800109229547258e+01 0 -1 0
36 12 4 4.2380000000000001e-01 6.1788905901416946e+00 9.5420157367553742e+00 5.3820707506295251e-01 0 -1 1
37 13 4 4.2380000000000001e-01 1.0725044578072978e+00 1.2524846481387158e+01 9.2621910296150780e+00 0 -1 0
38 13 5 -8.4760000000000002e-01 1.0325069405287826e+00 1.1571163766076568e+01 9.5603338954045292e+00 0 -1 0
39 13 4 4.2380000000000001e-01 1.8994945647187309e+00 1.1275023412347705e+01 9.1595429064511027e+00 0 -1 0
40 14 4 4.2380000000000001e-01 1.2083471299796908e+01 2.2042510204313772e+00 1.1290721758148925e+01 0 1 0
41 14 5 -8.4760000000000002e-01 1.1732447680688811e+01 1.7972376427982242e+00 1.0447440892998859e+01 0 1 0
42 14 4 4.2380000000000001e-01 1.2139485314255101e+01 2.3578909888587956e+00 9.7263383044553322e+00 0 1 0
43 15 4 4.2380000000000001e-01 1.2784678654348479e+01 4.3150374434470882e+00 8.8117239701495418e+00 -1 0 0
44 15 5 -8.4760000000000002e-01 1.2933720602220729e+01 3.3623744726811111e+00 8.5467345252018632e+00 -1 0 0
45 15 4 4.2380000000000001e-01 1.2437191870457765e+01 3.3955061285325834e+00 7.6793467633591730e+00 -1 0 0
46 16 4 4.2380000000000001e-01 4.5953976217880861e+00 1.2844543466300069e+01 7.8749361981579924e-01 1 0 1
47 16 5 -8.4760000000000002e-01 5.3857427959264035e+00 2.7670374716176366e-01 1.2217652261590242e+00 1 1 1
48 16 4 4.2380000000000001e-01 6.1432100676032775e+00 1.2780497080900671e+01 7.9747468143850930e-01 1 0 1
49 17 4 4.2380000000000001e-01 7.3335173271233556e+00 3.2711287393808055e+00 9.5239215664773660e+00 0 0 0
50 17 5 -8.4760000000000002e-01 8.2383226176427460e+00 3.6431962655705137e+00 9.7310287141663085e+00 0 0 0
51 17 4 4.2380000000000001e-01 8.8797284228249449e+00 2.9581849595619776e+00 9.3855452484174950e+00 0 0 0
52 18 4 4.2380000000000001e-01 9.6279129072612992e+00 6.3051535047997227e+00 7.1263559859517027e+00 0 0 0
53 18 5 -8.4760000000000002e-01 1.0508976624007863e+01 6.3177527004437311e+00 6.6535252299998380e+00 0 0 0
54 18 4 4.2380000000000001e-01 1.0781256771490336e+01 5.3742392842981896e+00 6.4647241463101821e+00 0 0 0
55 19 4 4.2380000000000001e-01 3.0080918557444489e+00 5.0402764474719168e+00 3.3598338481882273e-01 1 0 0
56 19 5 -8.4760000000000002e-01 3.3642778920155898e+00 5.8009170235503715e+00 8.7871621924187893e-01 1 0 0
57 19 4 4.2380000000000001e-01 2.7672182620125527e+00 5.6889008525880387e+00 1.6730536038352564e+00 1 0 0
58 20 4 4.2380000000000001e-01 6.5681191604640325e+00 4.8465221999612700e+00 6.4178069889385529e+00 0 0 0
59 20 5 -8.4760000000000002e-01 7.3597173982983355e+00 5.4395071165970279e+00 6.2703506486529612e+00 0 0 0
60 20 4 4.2380000000000001e-01 7.7097486547324756e+00 5.7433479959896481e+00 7.1564433470178965e+00 0 0 0
61 21 4 4.2380000000000001e-01 9.7674512083665235e+00 1.0292302346406565e+01 8.8283941327404829e+00 0 0 0
62 21 5 -8.4760000000000002e-01 8.8319101261907473e+00 9.9459666918787786e+00 8.7590064806301342e+00 0 0 0
63 21 4 4.2380000000000001e-01 8.5004226291511031e+00 1.0884720027013788e+01 8.6648766270551434e+00 0 0 0
64 22 4 4.2380000000000001e-01 3.7315059869230578e+00 8.7334835794461831e+00 9.2481753468350600e+00 0 0 0
65 22 5 -8.4760000000000002e-01 3.3158975113965146e+00 9.6426303329538996e+00 9.2213228076347207e+00 0 0 0
66 22 4 4.2380000000000001e-01 4.1431774803129064e+00 1.0165665665596739e+01 9.0162816369186594e+00 0 0 0
67 23 4 4.2380000000000001e-01 6.0694096423243069e+00 5.0323113989948141e+00 1.2769115069569557e+01 0 0 0
68 23 5 -8.4760000000000002e-01 6.0349851203391944e+00 4.2415763666743542e+00 3.8030592932700208e-01 0 0 1
69 23 4 4.2380000000000001e-01 5.0756377763544140e+00 4.0413798122024298e+00 5.7923840520456460e-01 0 0 1
70 24 4 4.2380000000000001e-01 1.2226461217178207e+01 1.1084528234933011e+01 9.1910806591940055e+00 -1 0 0
71 24 5 -8.4760000000000002e-01 1.1256697921590520e+01 1.1286579009094966e+01 9.0542037155362909e+00 -1 0 0
72 24 4 4.2380000000000001e-01 1.0831058569246482e+01 1.1563525772150737e+01 9.9156740790558775e+00 -1 0 0
73 25 4 4.2380000000000001e-01 4.3682197218951853e+00 7.9051092155314535e+00 4.8616088282698984e+00 0 0 0
74 25 5 -8.4760000000000002e-01 3.7964710389615721e+00 8.7106450463633998e+00 5.0172262478453673e+00 0 0 0
75 25 4 4.2380000000000001e-01 3.2426002477573772e+00 8.8026099337306771e+00 4.1897179625899801e+00 0 0 0
76 26 4 4.2380000000000001e-01 3.2525635804682991e+00 3.4961407003095801e+00 4.0281060202917240e+00 0 0 0
77 26 5 -8.4760000000000002e-01 2.7324904111413941e+00 3.9021941035547045e+00 3.2766777156425260e+00 0 0 0
78 26 4 4.2380000000000001e-01 3.1782406112088095e+00 3.4799852590411220e+00 2.4873434333037334e+00 0 0 0
79 27 4 4.2380000000000001e-01 8.0611961139491832e+00 5.3642052830241065e+00 3.2749547697755674e+00 0 0 0
80 27 5 -8.4760000000000002e-01 8.8368878874166779e+00 5.7782210923207407e+00 3.7512875745459913e+00 0 0 0
81 27 4 4.2380000000000001e-01 8.5989810064782439e+00 5.6639621824791764e+00 4.7158317431711279e+00 0 0 0
82 28 4 4.2380000000000001e-01 8.1516629424415044e+00 8.8417629252584113e+00 9.9847374982988839e+00 0 0 0
83 28 5 -8.4760000000000002e-01 7.6500428562523348e+00 8.5418721219934675e+00 1.0796182951462184e+01 0 0 0
84 28 4 4.2380000000000001e-01 8.2840949607584058e+00 8.6758655489138068e+00 1.1557776098725650e+01 0 0 0
85 29 4 4.2380000000000001e-01 1.1512274589076380e+01 1.2954796631235698e+01 5.6797898131016691e+00 0 -1 0
86 29 5 -8.4760000000000002e-01 1.1651004274112003e+01 8.1658978127753890e-01 5.1918697118955963e+00 0 0 0
87 29 4 4.2380000000000001e-01 1.1086806481308464e+01 5.6014794175937921e-01 4.4070651085026027e+00 0 0 0
88 30 4 4.2380000000000001e-01 5.9329576160427733e+00 6.7540501032445457e+00 5.2413399977326511e+00 0 0 0
89 30 5 -8.4760000000000002e-01 5.3373876950410377e+00 6.6766006882727922e+00 4.4417787519792844e+00 0 0 0
90 30 4 4.2380000000000001e-01 5.4418841647679228e+00 5.7519963398192679e+00 4.0754627406789288e+00 0 0 0
91 31 4 4.2380000000000001e-01 1.5952546877421736e+00 1.2914504089239388e+01 4.3712133297887812e+00 1 -1 0
92 31 5 -8.4760000000000002e-01 1.4913675794539023e+00 7.0446368165065787e-01 4.9755076332050869e+00 1 0 0
93 31 4 4.2380000000000001e-01 4.9219938699721871e-01 7.2997953785745207e-01 5.0073225303454221e+00 1 0 0
94 32 4 4.2380000000000001e-01 1.1898191706521668e+01 2.5006788940057643e+00 5.8818729851431764e+00 0 0 0
95 32 5 -8.4760000000000002e-01 1.2017356411891551e+01 3.4736477992912862e+00 6.0796908684291004e+00 0 0 0
96 32 4 4.2380000000000001e-01 1.1603981872091055e+01 3.8187445696399620e+00 5.2370581451624831e+00 0 0 0
97 33 4 4.2380000000000001e-01 3.6263102063355004e+00 1.2312113119751913e+01 7.3530806363710983e+00 0 -1 0
98 33 5 -8.4760000000000002e-01 3.3385848629832071e+00 1.2813416716517324e+01 8.1691136250846004e+00 0 -1 0
99 33 4 4.2380000000000001e-01 3.1303671461042843e+00 7.2574576600073892e-01 7.8165489953445979e+00 0 0 0
100 34 4 4.2380000000000001e-01 1.6356657921246938e+00 9.3822276244025389e+00 4.3113483904803260e+00 0 0 0
101 34 5 -8.4760000000000002e-01 1.7930025541730457e+00 9.4468292835645311e+00 3.3259181533712048e+00 0 0 0
102 34 4 4.2380000000000001e-01 2.1200744702651408e+00 1.0376699165436142e+01 3.1574951013560191e+00 0 0 0
103 35 4 4.2380000000000001e-01 1.2654047497060712e+00 4.4646912499971148e+00 2.2747501402801040e+00 0 0 0
104 35 5 -8.4760000000000002e-01 6.0737366393272874e-01 5.1307473870889799e+00 1.9235165604992490e+00 0 0 0
105 35 4 4.2380000000000001e-01 1.2901479338683481e+01 5.1693147155331083e+00 2.6307831988049437e+00 -1 0 0
106 36 4 4.2380000000000001e-01 1.8309521283872782e-01 6.4401088997370977e+00 8.5940825864185761e+00 1 0 -1
107 36 5 -8.4760000000000002e-01 1.2606523435221087e+01 5.7986492075928409e+00 9.1001419971963315e+00 0 0 -1
108 36 4 4.2380000000000001e-01 1.1661498191608247e+01 6.0676813290974785e+00 8.9142695668733580e+00 0 0 -1
109 37 4 4.2380000000000001e-01 1.5163249557381291e+00 9.4124124898616435e-01 1.2857654980965188e+01 1 0 0
110 37 5 -8.4760000000000002e-01 2.4200100186470244e+00 1.3173021898697659e+00 1.2652877793042087e+01 1 0 0
111 37 4 4.2380000000000001e-01 2.9848078400432838e+00 6.0415994855913602e-01 1.2237628867439298e+01 1 0 0
112 38 4 4.2380000000000001e-01 4.7505094330827848e+00 1.9664660224936097e+00 1.4206265945568328e+00 0 0 1
113 38 5 -8.4760000000000002e-01 4.0466633973915069e+00 2.6759906557327113e+00 1.3863321836748070e+00 0 0 1
114 38 4 4.2380000000000001e-01 3.3713714842980287e+00 2.1699982893768333e+00 8.4971913614214345e-01 0 0 1
115 39 4 4.2380000000000001e-01 9.9531076663049927e+00 1.1674705231311822e+01 2.8513319300880218e+00 0 0 0
116 39 5 -8.4760000000000002e-01 9.7471262249662693e+00 1.2497188776624490e+01 3.3815147447402869e+00 0 0 0
117 39 4 4.2380000000000001e-01 9.1627292105193501e+00 1.2109675006629301e+01 4.0944762622108843e+00 0 0 0
118 40 4 4.2380000000000001e-01 4.1637012928359107e+00 4.6918674420569770e+00 6.7715369504440153e+00 0 0 0
119 40 5 -8.4760000000000002e-01 4.9722272732139654e+00 4.1211366981640056e+00 6.6281717464715175e+00 0 0 0
120 40 4 4.2380000000000001e-01 4.6104129080978797e+00 3.2276917521212738e+00 6.3620013714391623e+00 0 0 0
121 41 4 4.2380000000000001e-01 6.5572854005256511e+00 1.0033025537103173e+01 1.0178887157531923e+01 0 0 0
122 41 5 -8.4760000000000002e-01 6.1310734735567420e+00 1.0929359029018631e+01 1.0056699693699972e+01 0 0 0
123 41 4 4.2380000000000001e-01 6.8769371312137837e+00 1.1546914992632745e+01 9.8070746754125242e+00 0 0 0
124 42 4 4.2380000000000001e-01 7.7515817363052675e-01 6.9220181312852818e+00 1.5174298645274249e+00 0 0 1
125 42 5 -8.4760000000000002e-01 7.3219232809583668e-01 7.8665736118011864e+00 1.1919001296188270e+00 0 0 1
126 42 4 4.2380000000000001e-01 9.9875513040953501e-01 8.5138800216773056e+00 1.9060005864584331e+00 0 0 1
127 43 4 4.2380000000000001e-01 2.3806662755027780e-01 1.0471386733008803e+01 1.1937711875155015e+01 0 0 -1
128 43 5 -8.4760000000000002e-01 4.1049685935559732e-01 1.0825496614773810e+01 1.2856882009860970e+01 0 0 -1
129 43 4 4.2380000000000001e-01 1.0604175079702354e+00 1.0099971353166405e+01 8.3191390371199436e-02 0 0 0
130 44 4 4.2380000000000001e-01 1.1252853402456285e+01 1.0491262051040341e+01 5.9883107845031205e+00 -1 0 0
131 44 5 -8.4760000000000002e-01 1.1392645984442446e+01 1.1423581411835066e+01 6.3218360062923020e+00 -1 0 0
132 44 4 4.2380000000000001e-01 1.1557205160149522e+01 1.1359078213794048e+01 7.3060921959968486e+00 -1 0 0
133 45 4 4.2380000000000001e-01 3.8934001689614752e+00 6.8745059258537706e+00 1.2440605752510034e+01 0 0 -1
134 45 5 -8.4760000000000002e-01 3.9292444413467797e+00 7.6770057291950735e+00 1.1845030860180701e+01 0 0 -1
135 45 4 4.2380000000000001e-01 4.4109121497973218e+00 8.3993390838495259e+00 1.2341247928993644e+01 0 0 -1
136 46 4 4.2380000000000001e-01 2.2977643461817117e+00 1.1857397359856135e+01 1.8821327970684694e+00 0 -1 0
137 46 5 -8.4760000000000002e-01 1.8755786499839515e+00 1.2166415913524526e+01 2.7343460290162240e+00 0 -1 0
138 46 4 4.2380000000000001e-01 1.0718923511705256e+00 1.2582063583194291e+01 2.3085226352944708e+00 0 -1 0
139 47 4 4.2380000000000001e-01 1.0375335066732745e+01 8.7441569071234260e-01 1.0523875128989463e+01 0 1 0
140 47 5 -8.4760000000000002e-01 9.7075671497683942e+00 1.5323113456400547e-01 1.0708214983300680e+01 0 1 0
141 47 4 4.2380000000000001e-01 1.0052969655422068e+01 1.2850950841652077e+01 1.1596654177081636e+01 0 0 0
142 48 4 4.2380000000000001e-01 1.1134637352415590e+01 3.5122787545334635e+00 2.8342685075709380e+00 0 1 0
143 48 5 -8.4760000000000002e-01 1.1254152358946392e+01 4.3194658682236433e+00 3.4123382706694514e+00 0 1 0
144 48 4 4.2380000000000001e-01 1.0361583345730562e+01 4.7703112934029548e+00 3.4046491502120939e+00 0 1 0
145 49 4 4.2380000000000001e-01 8.5343050262034410e+00 8.8080858126739603e+00 4.6266843169524403e+00 0 0 0
146 49 5 -8.4760000000000002e-01 9.0128557205840956e+00 8.7174303037370144e+00 3.7533164677308584e+00 0 0 0
147 49 4 4.2380000000000001e-01 8.9090947190074434e+00 7.7523636021357767e+00 3.5127342054283321e+00 0 0 0
148 50 4 4.2380000000000001e-01 1.0691616878829693e+01 8.5993649144162987e+00 4.7087582565399000e+00 0 0 0
149 50 5 -8.4760000000000002e-01 1.1174925120373475e+01 8.6869436640347448e+00 5.5798170037686976e+00 0 0 0
150 50 4 4.2380000000000001e-01 1.0958890137530547e+01 7.8323984107417992e+00 6.0521339943624151e+00 0 0 0
151 51 4 4.2380000000000001e-01 1.2376915599876307e+01 4.3753729750658419e+00 3.4859744951244009e-01 0 0 0
152 51 5 -8.4760000000000002e-01 1.1974515685113664e+01 3.7159372609770598e+00 1.2713602456274023e+01 0 0 -1
153 51 4 4.2380000000000001e-01 1.1098559509388529e+01 4.0420624016845847e+00 1.2358152784837248e+01 0 0 -1
154 52 4 4.2380000000000001e-01 7.3103579843253232e+00 1.8502698254055130e+00 6.5066053491868461e+00 0 1 0
155 52 5 -8.4760000000000002e-01 6.7634123734301896e+00 1.0139201263740614e+00 6.5436173438072105e+00 0 1 0
156 52 4 4.2380000000000001e-01 6.0738288219989247e+00 1.1710182063039194e+00 5.8366560915146541e+00 0 1 0
157 53 4 4.2380000000000001e-01 7.5296081012002514e+00 8.8877109149392162e+00 2.6015237443097079e+00 0 0 0
158 53 5 -8.4760000000000002e-01 7.0934689740285091e+00 8.6739299710043465e+00 1.7274068570525665e+00 0 0 0
159 53 4 4.2380000000000001e-01 6.1493613272789176e+00 8.4077275178317219e+00 1.9218258427004733e+00 0 0 0
160 54 4 4.2380000000000001e-01 6.4321652343958480e+00 4.3169643556945436e+00 2.2758701182353751e+00 0 0 0
161 54 5 -8.4760000000000002e-01 6.4663300879048773e+00 4.2914251635742673e+00 3.2749602693889077e+00 0 0 0
162 54 4 4.2380000000000001e-01 6.2931176247010425e+00 3.3661007686204920e+00 3.6122614651351186e+00 0 0 0
163 55 4 4.2380000000000001e-01 1.3167825364995653e+00 5.3194517996715414e+00 1.1548108022287281e+01 0 0 0
164 55 5 -8.4760000000000002e-01 6.2037895899190343e-01 6.0218852809307686e+00 1.1401107121779708e+01 0 0 0
165 55 4 4.2380000000000001e-01 9.6529105473275187e-02 5.8374125607967136e+00 1.0569511724854191e+01 0 0 0
166 56 4 4.2380000000000001e-01 2.1266132783535090e+00 6.1022163403734782e+00 6.5717238183831075e+00 1 0 0
167 56 5 -8.4760000000000002e-01 2.6161606592039015e+00 5.2734050590113304e+00 6.3007705984498070e+00 1 0 0
168 56 4 4.2380000000000001e-01 2.4178660871798390e+00 5.3100132830829283e+00 5.3213123148737091e+00 1 0 0
169 57 4 4.2380000000000001e-01 7.4052464590580680e+00 1.0894694818078312e+01 5.5764431723735202e+00 0 0 0
170 57 5 -8.4760000000000002e-01 7.7211465493242653e+00 1.1754050861544053e+01 5.1743046969737110e+00 0 0 0
171 57 4 4.2380000000000001e-01 7.5820234307759007e+00 1.2546177895795740e+01 5.7685941852641118e+00 0 0 0
172 58 4 4.2380000000000001e-01 3.1839848296820379e+00 3.2160718866638791e+00 8.9540421911400063e+00 0 0 0
173 58 5 -8.4760000000000002e-01 3.6856553919516095e+00 3.7604437830464161e+00 9.6263425344415197e+00 0 0 0
174 58 4 4.2380000000000001e-01 4.6447731546109070e+00 3.4789317140917420e+00 9.6553987424333076e+00 0 0 0
175 59 4 4.2380000000000001e-01 8.2873718619142718e+00 9.3557513089268216e+00 6.9655835474374435e+00 0 0 0
176 59 5 -8.4760000000000002e-01 7.6132958424935184e+00 9.2428692899809164e+00 6.2355975527796303e+00 0 0 0
177 59 4 4.2380000000000001e-01 6.9924752701073265e+00 8.5136979795319991e+00 6.5235075845751656e+00 0 0 0
178 60 4 4.2380000000000001e-01 4.1900195863755094e+00 1.0624553621138903e+01 4.2906976214244291e-01 0 -1 0
179 60 5 -8.4760000000000002e-01 3.4067707926549335e+00 1.1235928187934803e+01 5.4195841311043125e-01 0 -1 0
180 60 4 4.2380000000000001e-01 3.1931434656572435e+00 1.1508028170165497e+01 1.2603702199925229e+01 0 -1 -1
181 61 4 4.2380000000000001e-01 4.9938598400630667e+00 7.5495234649126397e+00 3.0956177748756843e+00 0 0 1
182 61 5 -8.4760000000000002e-01 4.6090259489451544e+00 7.9581788519724794e+00 2.2680278406079899e+00 0 0 1
183 61 4 4.2380000000000001e-01 4.0581151232455293e+00 7.2644299314106746e+00 1.8041204504006352e+00 0 0 1
184 62 4 4.2380000000000001e-01 5.3035010502887054e+00 1.4674963121542155e+00 1.0571266945566691e+01 1 1 0
185 62 5 -8.4760000000000002e-01 5.9116325534843730e+00 2.2599311384958147e+00 1.0524121597008044e+01 1 1 0
186 62 4 4.2380000000000001e-01 6.0449767339197180e+00 2.6122332637203631e+00 1.1450459679228917e+01 1 1 0
187 63 4 4.2380000000000001e-01 9.1152029877388046e+00 3.5050939783235893e+00 3.6396090474467702e-01 0 1 1
188 63 5 -8.4760000000000002e-01 8.6100733102544549e+00 3.0901281474126518e+00 1.1206965681095540e+00 0 1 1
189 63 4 4.2380000000000001e-01 7.6806499711449323e+00 3.2642281693877822e+00 7.9533209489533896e-01 0 1 1
190 64 4 4.2380000000000001e-01 7.5620457864389738e+00 1.5663856071062301e-01 1.1475072391789276e+01 0 1 -1
191 64 5 -8.4760000000000002e-01 7.3194999984755391e+00 1.2692593782673026e+01 1.2327031298955216e+01 0 0 -1
192 64 4 4.2380000000000001e-01 8.1885403421658065e+00 1.2512121826820758e+01 1.2787681542956717e+01 0 0 -1
193 65 4 4.2380000000000001e-01 2.3941513243450290e+00 2.9901423416320507e+00 1.2289581037361657e+01 0 0 -1
194 65 5 -8.4760000000000002e-01 2.6549470280669101e+00 3.9188474938345070e+00 1.2025965175749807e+01 0 0 -1
195 65 4 4.2380000000000001e-01 2.9827131770058641e+00 3.7734847571509706e+00 1.1092455051217435e+01 0 0 -1
196 66 4 4.2380000000000001e-01 2.9413267220992556e+00 1.7093357246300969e+00 5.1747894043430520e+00 0 0 0
197 66 5 -8.4760000000000002e-01 3.8729741707910801e+00 2.0510941398540266e+00 5.0513553836517096e+00 0 0 0
198 66 4 4.2380000000000001e-01 4.2793645219673611e+00 1.2681756806542115e+00 4.5803079817737364e+00 0 0 0
199 67 4 4.2380000000000001e-01 2.1155732714041258e+00 7.6929242834484155e+00 7.8632212335749916e+00 0 0 0
200 67 5 -8.4760000000000002e-01 1.3031537046649218e+00 7.2658959588435827e+00 7.4662071386879649e+00 0 0 0
201 67 4 4.2380000000000001e-01 1.0216542728574096e+00 8.0164495896735470e+00 6.8683537382812450e+00 0 0 0
202 68 4 4.2380000000000001e-01 8.6243442117446367e+00 4.8961417870787445e+00 8.7519859672788858e+00 0 0 0
203 68 5 -8.4760000000000002e-01 8.7920981659535311e+00 5.8361426936900855e+00 8.4549028154124493e+00 0 0 0
204 68 4 4.2380000000000001e-01 9.0038342930181248e+00 6.3536677007150137e+00 9.2839598672491874e+00 0 0 0
205 69 4 4.2380000000000001e-01 3.9326747897739374e+00 1.0480372128472995e+01 5.7361273780274828e+00 0 0 0
206 69 5 -8.4760000000000002e-01 3.8593201836863638e+00 1.1475682763149212e+01 5.7991835578425857e+00 0 0 0
207 69 4 4.2380000000000001e-01 4.1381944825374113e+00 1.1949294968454526e+01 4.9637671078351921e+00 0 0 0
208 70 4 4.2380000000000001e-01 1.0068488123247260e+01 2.3762188999114238e+00 1.4930028757226175e+00 -1 1 0
209 70 5 -8.4760000000000002e-01 1.1001215382697318e+01 2.1032196597071451e+00 1.7285712526928108e+00 -1 1 0
210 70 4 4.2380000000000001e-01 1.1598457884433198e+01 2.5998351935700028e+00 1.0987497324920958e+00 -1 1 0
211 71 4 4.2380000000000001e-01 4.3088548997571809e+00 6.7188434710725424e+00 1.0035587258880486e+01 0 0 0
212 71 5 -8.4760000000000002e-01 4.2231320240585877e+00 6.3805859167060621e+00 9.0984464593316705e+00 0 0 0
213 71 4 4.2380000000000001e-01 4.0181771741735659e+00 5.4075619564674700e+00 9.2043642037148636e+00 0 0 0
214 72 4 4.2380000000000001e-01 1.1053873738492959e+01 9.9866123253478207e+00 1.2192104325674331e+00 -1 0 1
215 72 5 -8.4760000000000002e-01 1.0430771465669743e+01 1.0445312543024622e+01 1.8527226050516301e+00 -1 0 1
216 72 4 4.2380000000000001e-01 9.9496130233557540e+00 9.5983406247445036e+00 2.0788312310938726e+00 -1 0 1
217 73 4 4.2380000000000001e-01 1.0167214734815062e+01 1.1805673032012626e+01 9.7098096755963204e-01 0 -1 1
218 73 5 -8.4760000000000002e-01 9.9745724087123531e+00 1.2601722249526670e+01 3.9722505640459610e-01 0 -1 1
219 73 4 4.2380000000000001e-01 1.0108562923258084e+01 3.8793224863903075e-01 1.0004830083770535e+00 0 0 1
220 74 4 4.2380000000000001e-01 1.2391393525216952e+01 5.0861831802156576e-01 1.1649478680033074e+00 -1 0 1
221 74 5 -8.4760000000000002e-01 2.8668355900335613e-01 2.7744840088483158e-01 7.8413821302203479e-01 0 0 1
222 74 4 4.2380000000000001e-01 3.2210703062066254e-01 1.2312853424131042e+01 5.2279373219163983e-01 0 -1 1
223 75 4 4.2380000000000001e-01 5.0407884529294353e+00 1.1987627828033290e+01 1.0482431340980206e+01 0 -1 -1
224 75 5 -8.4760000000000002e-01 4.3273672100549661e+00 1.2632528969525284e+01 1.0756530781968365e+01 0 -1 -1
225 75 4 4.2380000000000001e-01 3.8615906556869675e+00 1.2506777036550050e+01 9.8806092366002662e+00 0 -1 -1
226 76 4 4.2380000000000001e-01 9.1070914340427567e-01 1.0343412355720739e+01 6.0933554094858877e+00 0 0 0
227 76 5 -8.4760000000000002e-01 8.2841669578290245e-01 9.3678766259405464e+00 5.8894975692801630e+00 0 0 0
228 76 4 4.2380000000000001e-01 1.2862994589118060e+01 9.1524611278078236e+00 5.7426718840803099e+00 -1 0 0
229 77 4 4.2380000000000001e-01 9.1700141683348715e+00 2.3181683050377759e+00 7.1898831876952984e+00 0 0 0
230 77 5 -8.4760000000000002e-01 9.5735870729100974e+00 1.7723017456723558e+00 7.9241580814205097e+00 0 0 0
231 77 4 4.2380000000000001e-01 1.0301339596780979e+01 1.2368517775881072e+00 7.4955913042057558e+00 0 0 0

Velocities

1 4.0761346285937278e-03 -5.3825091774915073e-03 1.2888158615405708e-02
2 -1.0201379134332283e-02 -4.5462272913843237e-03 -6.2506967833824978e-03
3 1.8051623279443499e-04 -2.6532047052723567e-03 3.4445958102081310e-03
4 5.2050384594147124e-03 -6.2308410755657030e-04 -1.4509890332944893e-03
5 1.9063061162629749e-03 -3.8793433971202598e-03 -3.5750735293300791e-03
6 -6.5268025302267921e-03 1.2696952488879111e-03 5.6676025316766878e-03
7 3.6993222279432907e-03 -3.2942549165413428e-02 -3.0676376382311309e-04
8 5.7633328178797009e-03 -2.9721153423908574e-03 -2.9384293314156399e-03
9 -2.1547798807113722e-03 -2.0379026659883132e-02 -9.4017109703903260e-03
10 3.8466997751204508e-03 -2.2709210379646305e-03 -1.0196747616871865e-02
11 -3.6135001495499158e-03 -4.6506126633390281e-04 -2.7799338854218427e-03
12 -1.0230665165498896e-02 -8.6901188802148701e-04 9.7180510941045680e-03
13 -5.4899395588406605e-03 3.3218245375805028e-03 6.7112847914353414e-03
14 2.9870301360741753e-03 -5.7107124349975481e-03 4.3681165119269861e-03
15 2.4484814002895195e-02 1.5824298169432385e-02 -1.3213298341446415e-02
16 4.7631603743161152e-03 -8.6221448236230413e-03 -5.1227338289925430e-03
17 -1.7937107171581710e-03 2.5617880916857629e-03 2.4015679026761871e-03
18 2.2589280723138414e-03 -6.2873760717438790e-03 7.7440357057912872e-03
19 8.0076083166996121e-03 -1.5121024901164071e-03 3.0023455131166095e-03
20 -7.3247303031399955e-03 4.2187441418678725e-03 -2.0128596462724978e-03
21 -8.9700010578666733e-03 6.8060640149675430e-04 -1.8614775170713079e-03
22 6.3806451927482357e-03 -2.3587550325469371e-03 5.8247422984239960e-04
23 -3.8685655807315410e-03 -1.4477130634897460e-03 -4.7545781075863155e-03
24 -6.7371989345298040e-03 1.2935862519252730e-03 -4.2741759361205863e-03
25 9.4417202077965324e-03 -1.1432159636446672e-02 -1.1550314245589405e-02
26 8.5245045700062232e-03 1.3989599124550895e-03 -1.4494853211170968e-03
27 -6.6589549430745218e-04 5.2216801143950362e-03 -4.1146854334899261e-03
28 2.0356217231624944e-02 1.5022431096501148e-02 -1.9212635595903711e-02
29 -1.4042816082864540e-03 2.5983028816986393e-03 1.0634855432719915e-03
30 -1.1127965520501944e-02 1.9371462967657756e-03 2.7329638334687417e-03
31 -2.6289988381180897e-03 2.6331567053077546e-04 -2.3624747985144597e-03
32 4.3890255362271367e-04 3.7460779026671598e-03 4.6599737103149436e-03
33 -4.0448326021591281e-03 -1.1507165329369401e-02 -4.4647803856609448e-03
34 1.2407489323444983e-03 -5.1058067969777495e-03 -4.1234927241185406e-03
35 -2.0696020148810112e-03 2.4152598686935081e-03 1.1581188884174183e-03
36 -1.0589724972286239e-02 -1.9508052037468217e-02 -6.3343444571322544e-04
37 2.3536350564799836e-03 -2.9787097072021731e-03 -1.3803617548673056e-02
38 -4.1221896222317297e-03 2.9376699939096906e-03 4.3590043902559409e-03
39 -3.5925427949900675e-03 1.4456426754805190e-02 -3.0850566437908900e-03
40 -9.8160419928645694e-03 6.1974693509471521e-03 6.7885390988591766e-03
41 1.2335679244352249e-03 8.6884935023733324e-03 9.8890804954288362e-04
42 9.9527668819235429e-03 1.8058372776168289e-02 1.3188012517453164e-02
43 -2.1857449828975965e-02 1.5518970887006785e-03 4.9966379990116711e-03
44 -2.4850603606755253e-03 5.7723476427527891e-03 5.5861725806091668e-04
45 3.7222774636902082e-03 2.9641907862089736e-03 -3.0809097927527065e-03
46 1.1889549070676592e-02 -2.3012253145111780e-02 1.5494217034804554e-03
47 2.7768864814992464e-03 -2.0068634606991236e-03 -2.8094435264455833e-03
48 2.1902988727432331e-02 9.7675866513010825e-03 1.7580831269718936e-02
49 -1.0071095857716152e-02 9.0860959101191057e-03 1.5902305643892865e-02
50 -3.5355230928902888e-03 4.3992921541720891e-03 -4.4347298430222710e-03
51 -1.1849934243680551e-02 -9.1985248467074190e-03 7.1476649574534114e-03
52 -2.4607181374684596e-03 -2.0989242148622550e-02 -1.4609440216915345e-02
53 8.6945203213709826e-03 -1.9492826319532359e-03 6.6396108146183058e-03
54 1.7158554388721887e-02 2.4027953374009892e-03 -2.9658401535206909e-03
55 2.2899599262226587e-02 -5.0311628054451069e-03 -1.4471701603898468e-02
56 1.4770908228432553e-03 -1.4563006435555384e-04 -7.3559716969142973e-03
57 2.2294769717687998e-02 8.8120889720692591e-04 8.4112074098952362e-03
58 -1.2614451228291506e-02 1.1333640445767408e-02 -6.7255202544138038e-03
59 -1.7983893707759241e-03 -1.8533703825353409e-03 -1.4390653743981379e-03
60 -6.2909430766926256e-03 -3.5050115846178027e-03 8.9289967294917420e-04
61 -6.5951367774982166e-03 1.2521946990544080e-02 -3.0469053150642904e-02
62 -2.7808344357497456e-03 -2.7989330522430588e-03 -6.2098714338845399e-03
63 -1.5359055217068061e-02 -5.1160447275156260e-03 1.5317019167786475e-02
64 2.1722865708304156e-02 8.2937651234229765e-03 2.4825539533650225e-02