LAMMPS (3 Mar 2020)
Reading data file ...
  orthogonal box = (0 0 0) to (13 13 13)
  1 by 1 by 1 MPI processor grid
  reading atoms ...
  231 atoms
  reading velocities ...
  231 velocities
  scanning bonds ...
  1 = max bonds/atom
  scanning angles ...
  6 = max angles/atom
  reading bonds ...
  154 bonds
  reading angles ...
  81 angles
Finding 1-2 1-3 1-4 neighbors ...
  special bond factors lj:   0          0          0.5       
  special bond factors coul: 0          0          0.5       
  4 = max # of 1-2 neighbors
  3 = max # of 1-3 neighbors
  3 = max # of 1-4 neighbors
  4 = max # of special neighbors
  special bonds CPU = 0.000273943 secs
  read_data CPU = 0.00590301 secs
WARNING: Using 'neigh_modify every 1 delay 0 check yes' setting during minimization (../min.cpp:190)
PPPM initialization ...
  using 12-bit tables for long-range coulomb (../kspace.cpp:332)
  G vector (1/distance) = 0.257812
  grid = 10 10 10
  stencil order = 5
  estimated absolute RMS force accuracy = 0.00219313
  estimated relative force accuracy = 6.60454e-06
  using double precision KISS FFT
  3d grid and FFT values/proc = 4913 1000
Neighbor list info ...
  update every 1 steps, delay 0 steps, check yes
  max neighbors/atom: 2000, page size: 100000
  master list distance cutoff = 14
  ghost atom cutoff = 14
  binsize = 7, bins = 2 2 2
  1 neighbor lists, perpetual/occasional/extra = 1 0 0
  (1) pair lj/cut/coul/long, perpetual
      attributes: half, newton on
      pair build: half/bin/newton
      stencil: half/bin/3d/newton
      bin: standard
Setting up cg style minimization ...
  Unit style    : real
  Current step  : 0
Per MPI rank memory allocation (min/avg/max) = 10.38 | 10.38 | 10.38 Mbytes
Step Temp E_pair E_mol TotEng Press 
       0    243.33779   -1044.1688    56.300421    -821.0393    36634.328 
      76    243.33779   -1280.8721     83.73412   -1030.3089   -3320.9993 
Loop time of 0.633596 on 1 procs for 76 steps with 231 atoms

98.0% CPU use with 1 MPI tasks x no OpenMP threads

Minimization stats:
  Stopping criterion = energy tolerance
  Energy initial, next-to-last, final = 
        -987.868357703     -1197.05917745     -1197.13796349
  Force two-norm initial, final = 388.483 12.3305
  Force max component initial, final = 49.377 3.89629
  Final line search alpha, max atom move = 0.0106623 0.0415435
  Iterations, force evaluations = 76 152

MPI task timing breakdown:
Section |  min time  |  avg time  |  max time  |%varavg| %total
---------------------------------------------------------------
Pair    | 0.56394    | 0.56394    | 0.56394    |   0.0 | 89.01
Bond    | 0.0016985  | 0.0016985  | 0.0016985  |   0.0 |  0.27
Kspace  | 0.051745   | 0.051745   | 0.051745   |   0.0 |  8.17
Neigh   | 0.0087812  | 0.0087812  | 0.0087812  |   0.0 |  1.39
Comm    | 0.0054758  | 0.0054758  | 0.0054758  |   0.0 |  0.86
Output  | 0          | 0          | 0          |   0.0 |  0.00
Modify  | 0          | 0          | 0          |   0.0 |  0.00
Other   |            | 0.001954   |            |       |  0.31

Nlocal:    231 ave 231 max 231 min
Histogram: 1 0 0 0 0 0 0 0 0 0
Nghost:    7062 ave 7062 max 7062 min
Histogram: 1 0 0 0 0 0 0 0 0 0
Neighs:    139461 ave 139461 max 139461 min
Histogram: 1 0 0 0 0 0 0 0 0 0

Total # of neighbors = 139461
Ave neighs/atom = 603.727
Ave special neighs/atom = 2.03463
Neighbor list builds = 2
Dangerous builds = 0
Finding SHAKE clusters ...
  0 = # of size 2 clusters
  75 = # of size 3 clusters
  0 = # of size 4 clusters
  0 = # of frozen angles
  find clusters CPU = 0.00012207 secs
PPPM initialization ...
  using 12-bit tables for long-range coulomb (../kspace.cpp:332)
  G vector (1/distance) = 0.257812
  grid = 10 10 10
  stencil order = 5
  estimated absolute RMS force accuracy = 0.00219313
  estimated relative force accuracy = 6.60454e-06
  using double precision KISS FFT
  3d grid and FFT values/proc = 4913 1000
Setting up Verlet run ...
  Unit style    : real
  Current step  : 0
  Time step     : 1
Per MPI rank memory allocation (min/avg/max) = 11.78 | 11.78 | 11.78 Mbytes
Step CPU TotEng KinEng PotEng E_vdwl E_coul E_long Temp Press Volume Density 
       0            0   -1081.4585    160.96374   -1242.4223    219.27025    2491.9751   -3992.1174          300   -10974.151         2197    1.0920625 
    1000    4.1837471   -823.08035    153.12066   -976.20101    183.01462    2774.0089   -3990.3981    285.38227    743.52226         2197    1.0920625 
    2000    8.4322271   -811.67424    150.17051   -961.84475    157.09369    2808.3154   -3990.5325    279.88385   -957.19804         2197    1.0920625 
    3000     12.62751   -813.02383    166.61379   -979.63762    180.81613    2776.6869   -3991.2531    310.53041    1235.3359         2197    1.0920625 
    4000    16.817943    -791.6613    161.83246   -953.49376    180.45296    2789.7272   -3991.3715    301.61909    1691.5894         2197    1.0920625 
    5000    21.016324   -800.51196    165.90692   -966.41888    181.29321     2768.867   -3991.0857    309.21296    2006.5384         2197    1.0920625 
    6000    25.209501   -818.67919    144.02717   -962.70635    196.77486    2779.5247   -3991.2487    268.43406    4236.0769         2197    1.0920625 
    7000    29.431014    -815.8038    159.93445   -975.73825    172.00933    2794.3451   -3990.7696    298.08163    772.37767         2197    1.0920625 
    8000     33.65142   -811.44879    166.16205   -977.61083    193.99063    2762.8776   -3990.6973    309.68846    3442.7403         2197    1.0920625 
    9000    37.828242   -809.23781    180.62347   -989.86127    170.83221    2779.3594   -3991.6957    336.64128    953.66501         2197    1.0920625 
   10000    42.024761   -843.42588      141.051   -984.47689    196.27701    2762.9023   -3990.9458    262.88716    2302.4667         2197    1.0920625 
   11000    46.234399   -810.79245    162.55629   -973.34873    136.39726    2822.3707   -3990.7975    302.96814   -2958.0997         2197    1.0920625 
   12000    50.434509   -809.29152    162.61148     -971.903    182.39137    2775.2737   -3991.7422    303.07101    808.72316         2197    1.0920625 
   13000    54.639746   -799.10343    177.41607    -976.5195    168.95508    2786.8134   -3990.5762    330.66341     -1154.18         2197    1.0920625 
   14000    58.832642   -815.24491    161.95223   -977.19714    183.67446    2756.7953   -3991.1216    301.84231    21.548954         2197    1.0920625 
   15000    63.034242   -841.35648      160.833   -1002.1895    203.38061    2727.9461   -3990.5768    299.75632    1636.6658         2197    1.0920625 
   16000    67.255197   -801.02545    165.95475    -966.9802    187.51456    2792.2787   -3990.9208    309.30211    2161.9371         2197    1.0920625 
   17000     71.42021   -811.74426    167.43288   -979.17714    176.61423    2779.1401   -3991.3525      312.057    649.41642         2197    1.0920625 
   18000    75.621841   -832.84952    155.70848   -988.55801    174.26019     2769.485   -3991.4158    290.20539    651.84213         2197    1.0920625 
   19000    79.796709   -827.98259    163.44632   -991.42892    198.28191    2737.6229   -3991.3346    304.62697    2797.7581         2197    1.0920625 
   20000    83.998194   -794.30795    167.10532   -961.41327    206.46013    2750.7955   -3991.2403    311.44651     4504.642         2197    1.0920625 
   21000    88.216427   -828.33956     173.4016   -1001.7412    215.00375    2714.5611   -3991.4947    323.18135    4439.0816         2197    1.0920625 
   22000    92.429905   -817.75853    155.03713   -972.79566    185.41375    2768.0827   -3991.1892    288.95413    2267.7361         2197    1.0920625 
   23000    96.645811   -829.00783    153.80645   -982.81428    177.35185    2778.4493   -3990.1734    286.66043    548.70908         2197    1.0920625 
   24000    100.83293   -815.87038    159.55488   -975.42526    186.85396    2763.2103   -3990.0417    297.37421    893.57228         2197    1.0920625 
   25000    105.04243   -832.95707    149.82635   -982.78342    170.54938    2793.9885   -3991.1507    279.24241   -279.58435         2197    1.0920625 
   26000    109.21074   -803.82176    171.22995   -975.05171    169.14911    2784.2115   -3990.2792    319.13389   -1548.0615         2197    1.0920625 
   27000    113.40921    -798.1524    163.48509   -961.63749     175.7887    2794.1642   -3991.0729    304.69922    524.41636         2197    1.0920625 
   28000    117.61881   -803.01518    155.99747   -959.01265    153.57838    2809.1569   -3990.5209      290.744    -380.1577         2197    1.0920625 
   29000    121.80671   -775.93009    155.87591     -931.806    187.04646    2832.2282   -3989.4098    290.51743    4893.0145         2197    1.0920625 
   30000    126.01513   -824.35173    163.16945   -987.52117    201.70227    2732.9289   -3990.9117    304.11094    2704.1408         2197    1.0920625 
   31000    130.21427   -813.82449     159.7134   -973.53789    173.96882    2790.8651   -3991.1224    297.66965    853.88794         2197    1.0920625 
   32000    134.40694    -803.0647    176.08476   -979.14946    183.78215    2769.7472   -3990.1885    328.18215    723.13307         2197    1.0920625 
   33000     138.6079   -805.63141    145.69956   -951.33097    158.95093    2822.5817   -3991.2287    271.55101   -1019.9306         2197    1.0920625 
   34000    142.77238   -833.13077    173.19077   -1006.3215    181.91102    2742.6556   -3991.2143    322.78841   -382.39515         2197    1.0920625 
   35000    146.94517   -831.67351    160.42799    -992.1015    224.17529    2713.2731   -3990.9632    299.00148    4851.5641         2197    1.0920625 
   36000    151.12945   -816.30869    167.94141    -984.2501    194.38023    2746.7371   -3991.2725    313.00479    1441.4581         2197    1.0920625 
   37000    155.32472   -837.08365    152.70235     -989.786    187.55359    2748.1446   -3990.7171    284.60263    -178.4332         2197    1.0920625 
   38000    159.49656   -827.18918    156.67869   -983.86787    196.95031    2758.7374   -3991.2544    292.01362    1991.7983         2197    1.0920625 
   39000    163.65937   -805.26228    170.79836   -976.06064    149.11642    2812.6291   -3991.4183     318.3295   -1972.8117         2197    1.0920625 
   40000    167.82145   -830.73174    148.96098   -979.69272    157.91855    2795.4079   -3990.9287    277.62958   -1678.8251         2197    1.0920625 
   41000    172.01353   -815.61681    162.62326   -978.24008    188.22791    2759.6374   -3991.3164    303.09297    2063.9078         2197    1.0920625 
   42000    176.18721    -829.3594    164.54841   -993.90781    191.56432    2746.6443   -3991.9638      306.681    2138.5921         2197    1.0920625 
   43000    180.36879   -805.32513    164.70413   -970.02927     188.9506    2768.4123   -3990.4798    306.97124    1819.0047         2197    1.0920625 
   44000    184.57822   -826.96893    150.33917    -977.3081    172.78463    2795.7245   -3991.2793     280.1982   -218.38964         2197    1.0920625 
   45000    188.77923   -793.08527    181.41691   -974.50218    155.18527    2805.4098    -3990.945    338.12008   -1931.3145         2197    1.0920625 
   46000    192.99128   -808.54917    160.48712   -969.03628    199.44397    2754.5845   -3990.5889    299.11168    2450.2222         2197    1.0920625 
   47000    197.18867    -844.4146    146.00168   -990.41629    172.48719    2780.2064   -3990.9103    272.11411   -614.67324         2197    1.0920625 
   48000     201.3774   -834.67907    166.58009   -1001.2592    174.46432    2761.3937   -3991.3863     310.4676    -1741.767         2197    1.0920625 
   49000    205.55649     -831.376    148.05168   -979.42768    176.37785    2786.1881   -3991.0276    275.93484   -470.27195         2197    1.0920625 
   50000    209.75089   -805.57143     178.5285   -984.09993    168.59867    2783.5167   -3989.7907    332.73674   -881.17584         2197    1.0920625 
   51000    213.95765   -815.80667    157.23463   -973.04131    182.52329    2763.3429   -3990.6987    293.04978     1062.051         2197    1.0920625 
   52000    218.18212   -787.23949    180.65273   -967.89221    179.89786    2789.4652   -3991.2632    336.69581    1441.1858         2197    1.0920625 
   53000    222.37292    -807.4873    147.83857   -955.32586    161.67465    2833.8558   -3991.0352    275.53765    192.95801         2197    1.0920625 
   54000    226.56039   -820.06104    147.29141   -967.35245    188.28666    2779.9358   -3991.6834    274.51786    1738.4363         2197    1.0920625 
   55000    230.77554   -827.75796    160.95586   -988.71382     207.5213    2742.1747   -3991.3035     299.9853    3094.3784         2197    1.0920625 
   56000    234.97828   -812.44441    154.29416   -966.73856    175.94225    2789.4149   -3990.1748     287.5694    133.14796         2197    1.0920625 
   57000    239.18081   -786.73339    170.71611   -957.44951    162.54536      2802.78   -3990.7158    318.17621   -1014.7397         2197    1.0920625 
   58000    243.36571   -798.76719    162.67736   -961.44455    167.19968    2805.8359   -3991.1965     303.1938   -489.29824         2197    1.0920625 
   59000    247.54722   -808.98997    158.73048   -967.72045    192.38752    2774.2678   -3990.7797    295.83771    2593.4098         2197    1.0920625 
   60000    251.73278   -833.25942    152.96528    -986.2247    188.95008    2756.3728   -3991.2235    285.09268    1437.1754         2197    1.0920625 
   61000    255.92517   -794.29162    169.54974   -963.84136    161.51444    2815.8244   -3990.0302    316.00236   -151.41387         2197    1.0920625 
   62000    260.14441   -815.90815    165.06969   -980.97784    179.67635    2775.5956   -3990.2481    307.65255    141.57022         2197    1.0920625 
   63000    264.31606   -782.22753    186.36972   -968.59725    185.54622    2770.9456   -3990.6378    347.35099     1473.042         2197    1.0920625 
   64000    268.50185   -792.26231       171.86    -964.1223    164.28993    2811.2866    -3990.626    320.30815    731.36039         2197    1.0920625 
   65000    272.69566   -809.75688    169.47641    -979.2333    157.03716    2792.5454   -3991.0871     315.8657   -1323.3565         2197    1.0920625 
   66000    276.89959   -816.73576     156.7979   -973.53366    192.78052    2778.5691   -3990.7718    292.23582    2353.8272         2197    1.0920625 
   67000    281.09183   -812.14456    153.67075   -965.81531    158.96098    2816.6171   -3990.9819    286.40752     60.92354         2197    1.0920625 
   68000    285.29544   -793.22808    156.79053   -950.01861    155.34359    2829.3268   -3990.3588    292.22207   -106.28495         2197    1.0920625 
   69000    289.50776   -816.23713     153.4668   -969.70393    169.16946    2796.9786   -3990.3757     286.0274   -405.00449         2197    1.0920625 
   70000     293.7087   -793.32759    171.47372   -964.80132     172.9311    2791.9338   -3990.3609    319.58823   -79.492072         2197    1.0920625 
   71000    297.91335     -802.708    161.17949   -963.88749    198.00693    2773.6365   -3990.9177     300.4021    4341.2614         2197    1.0920625 
   72000    302.09098   -814.06003    155.34156   -969.40159    192.26963    2757.0242    -3990.352    289.52152    2698.9183         2197    1.0920625 
   73000    306.28287   -817.94934    156.20884   -974.15818    189.48177    2766.8771   -3990.5187    291.13793     2876.571         2197    1.0920625 
   74000    310.48193   -821.76855    169.30496   -991.07351    189.62745    2751.4681   -3989.8672    315.54614    2194.9518         2197    1.0920625 
   75000    314.66838   -823.78314    159.69846   -983.48161    179.52645    2777.2586   -3991.1929    297.64181    1383.6868         2197    1.0920625 
   76000     318.8514    -840.0821      153.424    -993.5061    203.43583    2736.5519   -3990.6592    285.94762    2864.1977         2197    1.0920625 
   77000    323.02797   -854.49385    137.75276   -992.24661    163.93469    2763.3432   -3989.9747    256.73998   -1209.5191         2197    1.0920625 
   78000    327.20349   -826.19625    169.15459   -995.35084    186.75315    2745.8438    -3991.583    315.26588    1182.8569         2197    1.0920625 
   79000    331.40277   -804.96686    154.14891   -959.11577    137.10064    2846.3301   -3990.1207    287.29869   -2328.6818         2197    1.0920625 
   80000    335.61457   -818.75539    144.75259   -963.50798    179.49504    2787.7479   -3990.7489    269.78608    1220.4594         2197    1.0920625 
   81000    339.82083   -805.33973    166.41903   -971.75876    193.91794    2768.5351   -3990.1885    310.16742    3126.3787         2197    1.0920625 
   82000    344.02007    -830.3546    155.97894   -986.33354    186.37344    2754.0129   -3990.5777    290.70946    1900.4728         2197    1.0920625 
   83000    348.21473   -793.34801    150.39963   -943.74764    179.33103    2800.7281   -3991.2151    280.31088    2259.3408         2197    1.0920625 
   84000    352.39259   -808.61098    162.73634   -971.34732    145.77917    2816.4723   -3990.8708    303.30371    -2005.399         2197    1.0920625 
   85000    356.59422   -826.66764     144.6889   -971.35654    189.88517    2767.6512   -3991.3965    269.66738    3325.0085         2197    1.0920625 
   86000    360.80937   -795.67439    162.48439   -958.15878    189.82071    2773.9798   -3989.5344    302.83415    2114.8938         2197    1.0920625 
   87000    364.99095   -829.07241    162.18255   -991.25496    183.89171    2750.4909   -3991.3549    302.27157    694.07828         2197    1.0920625 
   88000    369.17977    -794.5074    170.93419   -965.44159    193.84062    2772.3355   -3991.1181    318.58265    2656.9623         2197    1.0920625 
   89000     373.3601   -806.87648    171.52167   -978.39814    172.49556    2778.8601   -3990.9704    319.67759   -284.41937         2197    1.0920625 
   90000    377.54512   -825.33007    162.51098   -987.84105    198.21172     2753.826   -3991.2987     302.8837    2386.4916         2197    1.0920625 
   91000    381.75231   -823.43348    158.24242    -981.6759    181.43992    2770.6215    -3990.395    294.92808    1023.5029         2197    1.0920625 
   92000    385.94104   -819.26617    143.52205   -962.78822    185.90522    2785.2163   -3990.6992    267.49262    1734.4709         2197    1.0920625 
   93000    390.13346   -823.93895     159.3105   -983.24945    187.31722    2763.1971   -3991.3783    296.91873    966.25805         2197    1.0920625 
   94000    394.33415   -796.33721    147.90739    -944.2446    169.90569    2827.2159   -3989.8978    275.66591    438.32214         2197    1.0920625 
   95000    398.54139   -828.60298    146.01172    -974.6147    203.97618    2740.5466   -3990.5995    272.13281    2566.4611         2197    1.0920625 
   96000    402.72914   -815.81264    167.83455   -983.64719    197.47508    2749.9126   -3991.2519    312.80563    2770.3605         2197    1.0920625 
   97000    406.91805    -803.9405    162.30346   -966.24396    169.33363    2801.1365   -3990.2233    302.49693    397.03598         2197    1.0920625 
   98000    411.11158   -808.11593    163.03763   -971.15355    186.66113    2771.3178   -3990.9818    303.86525    1102.4656         2197    1.0920625 
   99000    415.32077   -801.02675    169.48243   -970.50918    168.95011    2800.9421   -3991.1931    315.87691    1896.9979         2197    1.0920625 
  100000    419.53796   -787.68615    165.59631   -953.28246    162.28339    2813.2498   -3990.7284    308.63405    66.049063         2197    1.0920625 
  101000    423.74701   -817.54201    149.02023   -966.56224    148.60467    2816.7256   -3990.1915    277.73999   -773.46418         2197    1.0920625 
  102000    427.95482   -790.52559    161.58558   -952.11117    143.81303    2837.8162   -3990.6917    301.15897   -1626.1145         2197    1.0920625 
  103000    432.16413   -801.00623     166.0277   -967.03393    188.68449    2780.3784   -3991.0643    309.43807    1801.1814         2197    1.0920625 
  104000    436.39347   -838.96635    145.26898   -984.23533    189.10024    2754.8595   -3991.0922    270.74851    1368.5781         2197    1.0920625 
  105000    440.62901   -817.10267    163.81233     -980.915    179.68236    2756.2041   -3990.8895    305.30912      1054.52         2197    1.0920625 
  106000    444.81698   -806.51321    155.63317   -962.14638    188.95739    2789.7866    -3991.283    290.06501     2500.998         2197    1.0920625 
  107000    449.01625   -824.06013    151.11381   -975.17393    188.48449    2776.4427   -3991.5087    281.64195     2416.015         2197    1.0920625 
  108000    453.21319   -840.24269    153.73265   -993.97534    175.28594    2771.3976   -3990.7149    286.52288     306.0688         2197    1.0920625 
  109000    457.41063   -805.72546    162.95717   -968.68263    164.83578    2804.9151   -3991.3429    303.71529    149.20993         2197    1.0920625 
  110000    461.61107   -827.69755    151.69025   -979.38781    175.87441    2768.7664   -3990.2964    282.71631    1834.9816         2197    1.0920625 
  111000    465.81986   -811.69012    160.96185   -972.65196    177.18933    2787.4271   -3989.7729    299.99647    2185.0626         2197    1.0920625 
  112000    470.01732   -850.73727    155.30442   -1006.0417    171.49603    2760.7322   -3991.0147    289.45229   -458.17503         2197    1.0920625 
  113000    474.22549   -799.19638    170.24144   -969.43782    159.87671    2804.1127   -3991.3597    317.29153   -237.99305         2197    1.0920625 
  114000    478.44788   -811.45058    170.46403    -981.9146    160.64566    2788.3764   -3990.9585    317.70638   -1110.6623         2197    1.0920625 
  115000    482.64859   -803.70564     157.5582   -961.26385    193.83241    2790.4968   -3990.6561    293.65285    3483.7302         2197    1.0920625 
  116000    486.86331    -804.2751    162.52301    -966.7981    181.50638    2783.1971   -3991.3264    302.90611    1729.5671         2197    1.0920625 
  117000    491.08766   -797.96444    159.80657   -957.77101    179.33975    2801.7316   -3990.8836    297.84328    2525.0493         2197    1.0920625 
  118000    495.32028   -820.83735     168.3778   -989.21515    186.02131    2767.7392   -3991.5794    313.81812    1614.9423         2197    1.0920625 
  119000    499.53471   -818.27895    155.47316    -973.7521    181.03852    2783.4034   -3990.4137    289.76679    639.28317         2197    1.0920625 
  120000    503.72374   -792.44579    162.57504   -955.02083     197.7228    2779.6552   -3989.9654    303.00309     3531.626         2197    1.0920625 
  121000     507.8887   -792.77675    168.24793   -961.02467    171.29119     2806.582   -3991.4625    313.57607    1396.7929         2197    1.0920625 
  122000    512.09076    -825.1664    155.39308   -980.55948    206.46311    2748.3087   -3991.3694    289.61755    3710.6731         2197    1.0920625 
  123000    516.27428   -802.32125    155.35109   -957.67234    194.82745     2773.923   -3990.4807    289.53928    2917.0124         2197    1.0920625 
  124000    520.46646   -805.62898    172.35274   -977.98172    164.88999    2792.9194   -3991.4412    321.22652   -394.49297         2197    1.0920625 
  125000    524.67007   -838.66174    151.61113   -990.27287    186.04098    2757.4269    -3991.439    282.56884    838.33908         2197    1.0920625 
  126000    528.87128   -814.97507    141.72496   -956.70003    163.15422    2811.2249   -3990.7178    264.14327   -1489.9559         2197    1.0920625 
  127000    533.06802   -798.28438    147.49122    -945.7756    161.15247    2824.2187   -3990.5822    274.89026   -628.56747         2197    1.0920625 
  128000    537.25397   -811.87196    162.50324    -974.3752    178.19864    2778.0236    -3990.659    302.86928    181.57478         2197    1.0920625 
  129000    541.46121   -807.31712    159.04251   -966.35963    165.52896    2796.9145   -3990.6129    296.41926   -1203.1209         2197    1.0920625 
  130000    545.64771   -842.03189     155.2042   -997.23609     175.2123    2766.0751   -3990.9559    289.26551   -760.33905         2197    1.0920625 
  131000    549.83222   -820.43987    166.67487   -987.11473    199.00583    2747.5942   -3991.6373    310.64424    3124.1167         2197    1.0920625 
  132000    554.02257   -836.83466    160.06019   -996.89485    184.31093    2747.3876   -3990.8312    298.31598    594.55105         2197    1.0920625 
  133000    558.19727   -827.88674    175.06288   -1002.9496     218.0956    2722.4428   -3991.5669     326.2776    4019.3629         2197    1.0920625 
  134000    562.38008   -839.79475    156.83006   -996.62481     200.5402    2730.8366   -3991.1982    292.29575    2964.4493         2197    1.0920625 
  135000    566.55581   -813.24317    160.87439   -974.11756    205.13286    2742.8321   -3991.4415    299.83347    2907.1232         2197    1.0920625 
  136000    570.76484   -817.33066     157.6261   -974.95675    215.56028    2740.7998   -3991.8561    293.77939    4642.4281         2197    1.0920625 
  137000    574.93956   -811.58128    158.50254   -970.08382    179.84169    2759.8435   -3990.4683    295.41287    186.94338         2197    1.0920625 
  138000    579.15401   -821.35662     175.6496   -997.00621    177.85703    2759.4553   -3990.8657    327.37111    356.34038         2197    1.0920625 
  139000    583.36549   -814.03227    160.72927   -974.76155    172.53102    2770.0811    -3990.722      299.563    1315.5848         2197    1.0920625 
  140000    587.56175   -852.32687    149.92393   -1002.2508    169.53271    2771.9402   -3990.7786    279.42429   -217.19282         2197    1.0920625 
  141000    591.77905   -817.15825    166.68525    -983.8435     168.3222    2787.6571   -3989.8742     310.6636    699.34489         2197    1.0920625 
  142000    596.00388    -800.4538    149.90373   -950.35753    161.15313    2820.3403   -3991.1316    279.38664    863.97267         2197    1.0920625 
  143000    600.21398   -824.05871    157.38987   -981.44859    183.26121    2769.3101   -3991.4358    293.33911    385.81933         2197    1.0920625 
  144000    604.41866    -803.6009    157.72592   -961.32683    176.66011    2788.2614   -3990.9054    293.96544    1793.2215         2197    1.0920625 
  145000    608.64756   -828.15346    178.81552    -1006.969     191.9535    2734.2115   -3990.5651    333.27168    1908.4872         2197    1.0920625 
  146000    612.83699   -800.85593    173.24818   -974.10411    177.31856    2774.9115   -3990.6637    322.89541    1551.2475         2197    1.0920625 
  147000    617.04061   -818.16256    150.15262   -968.31518    205.42098    2757.7139   -3991.6189    279.85051    3717.4523         2197    1.0920625 
  148000      621.261   -788.65479    167.09035   -955.74515    156.26283    2817.9504    -3990.244    311.41862   -1280.3736         2197    1.0920625 
  149000    625.48264     -814.913    151.24254   -966.15554    189.56155    2774.0831   -3989.7661    281.88187    2302.5346         2197    1.0920625 
  150000    629.69872   -813.93846    164.24789   -978.18635    181.84828    2774.8099   -3990.8691    306.12091    447.90126         2197    1.0920625 
  151000    633.89381   -818.95269    169.81534   -988.76803    176.24282    2784.7258   -3991.2839    316.49737   -261.97919         2197    1.0920625 
  152000    638.09623   -801.13674    154.43235   -955.56909    167.06795    2801.6607   -3990.6279    287.82696    1266.7468         2197    1.0920625 
  153000    642.28962   -800.63825    165.84488   -966.48313    176.65608    2798.6502    -3990.715    309.09733    2005.9777         2197    1.0920625 
  154000    646.48848   -803.44572     146.3115   -949.75722    159.52195    2810.7477   -3990.1323    272.69154   -823.69681         2197    1.0920625 
  155000     650.7003   -789.29034    150.47754   -939.76788    154.94805    2832.1134   -3990.8941    280.45609   -954.90301         2197    1.0920625 
  156000    654.93312    -807.7617    170.07541   -977.83711    180.58127     2767.484   -3991.0645    316.98208    1797.1117         2197    1.0920625 
  157000    659.14235   -795.10605    176.44303   -971.54908    170.20119    2799.0531   -3991.5503    328.84989    933.13283         2197    1.0920625 
  158000    663.34559   -819.53086    157.85366   -977.38451    161.14432    2793.8644   -3991.0682     294.2035   -630.62594         2197    1.0920625 
  159000    667.53557   -803.52588    158.12361   -961.64949    169.69561    2798.6832   -3990.8633    294.70663    28.378117         2197    1.0920625 
  160000    671.75464   -788.68076    153.69804    -942.3788    165.21607    2835.0546   -3990.6938    286.45837    523.80093         2197    1.0920625 
  161000     675.9691   -805.28036    150.87181   -956.15217    144.43548    2824.9377   -3990.2746    281.19092   -1814.4201         2197    1.0920625 
  162000      680.157   -830.48127    143.81113    -974.2924     186.6662    2766.9476   -3991.7873     268.0314     2203.063         2197    1.0920625 
  163000    684.33245   -809.73105    157.78049   -967.51154    174.36719    2794.0774   -3990.6373    294.06714    1836.0917         2197    1.0920625 
  164000    688.49469   -812.44437    170.16489   -982.60926    166.72899    2791.4464   -3991.1799    317.14886    559.99771         2197    1.0920625 
  165000    692.68931   -830.74984    146.26233   -977.01217    173.05739    2764.4582   -3991.3739     272.5999    722.20649         2197    1.0920625 
  166000    696.87159   -813.74583    168.66797    -982.4138    163.30333     2786.654     -3990.88    314.35894   -11.555367         2197    1.0920625 
  167000    701.01632   -831.59014    152.33421   -983.92435      187.556    2766.5518   -3991.4185     283.9165    1546.8861         2197    1.0920625 
  168000    705.20849   -801.74327    156.87369   -958.61696    188.53285     2773.022   -3991.1096    292.37707    1695.2819         2197    1.0920625 
  169000    709.39422   -820.08966    163.64351   -983.73317    198.02782    2750.7706   -3989.7904    304.99449    2815.9063         2197    1.0920625 
  170000     713.5728   -834.55727     167.6141   -1002.1714    199.58663    2733.9456   -3991.0936    312.39477    1492.6254         2197    1.0920625 
  171000    717.75517   -824.91691    162.84157   -987.75848    207.91247    2733.7592   -3991.4878    303.49985    2833.0814         2197    1.0920625 
  172000    721.92599   -812.24675     173.0276   -985.27435    178.35617    2771.1206   -3990.6081     322.4843    17.740917         2197    1.0920625 
  173000    726.13192   -838.75523    137.85146   -976.60669     187.2756    2773.8802    -3990.829    256.92393     2264.994         2197    1.0920625 
  174000    730.32831   -817.58998    166.50534   -984.09532    166.15891    2781.5593   -3990.8645    310.32829    107.61265         2197    1.0920625 
  175000    734.53915    -845.9785    146.99344   -992.97193    195.04848    2742.5474    -3990.985    273.96251    1905.8855         2197    1.0920625 
  176000    738.72324   -789.64103     174.6569   -964.29793    189.37506    2765.0441   -3991.0145    325.52095    3196.6599         2197    1.0920625 
  177000    742.90412   -820.58212    154.21874   -974.80087    198.12457    2739.9404   -3991.0777    287.42885    2903.1345         2197    1.0920625 
  178000    747.08096   -803.01368    167.29542    -970.3091    193.37643    2774.2591   -3990.7517    311.80081    3314.2095         2197    1.0920625 
  179000    751.24895   -784.92581    169.90922   -954.83503    180.44389    2781.7961    -3990.161    316.67235    1382.7955         2197    1.0920625 
  180000    755.42863   -820.96271    153.90117   -974.86388    166.69812    2803.0672   -3991.1896    286.83696   -126.52999         2197    1.0920625 
  181000    759.60623   -808.23275    155.57208   -963.80483    174.69965    2791.1826   -3991.2156    289.95116    1225.2802         2197    1.0920625 
  182000    763.80909   -791.15556    170.50919   -961.66475    163.28235    2810.1349   -3990.7388    317.79055    1287.2046         2197    1.0920625 
  183000    767.98348   -830.14877    150.09648   -980.24525    162.40135    2798.8636   -3989.9139    279.74589     231.0144         2197    1.0920625 
  184000    772.17027   -831.73232    145.63701   -977.36933    198.53362    2746.8493   -3989.7308    271.43445     2811.248         2197    1.0920625 
  185000    776.34897   -829.03729    154.86414   -983.90143    188.21727    2759.9932   -3990.9744    288.63171    3365.2954         2197    1.0920625 
  186000    780.57646   -778.55213    166.66406   -945.21619    190.06058    2777.9025    -3990.765     310.6241    4418.2147         2197    1.0920625 
  187000    784.78986   -826.93992    149.61595   -976.55586    188.99327    2777.9494   -3991.3157    278.85027    3187.7767         2197    1.0920625 
  188000    788.96945   -773.30897    169.33653    -942.6455    192.51502    2786.1179   -3990.4502    315.60498    4943.5734         2197    1.0920625 
  189000    793.14088   -800.05223    154.29541   -954.34764    194.39551    2783.8464    -3991.055    287.57173    3848.0988         2197    1.0920625 
  190000    797.34145   -804.53695    180.17042   -984.70737    180.78552    2757.1885   -3990.3763     335.7969    1442.2392         2197    1.0920625 
  191000    801.50894   -824.60645    154.10404   -978.71049    149.18188    2802.1696   -3990.8495    287.21507   -1884.8922         2197    1.0920625 
  192000    805.70409   -812.92965    160.56427   -973.49392    158.37893    2789.5916   -3990.6746    299.25548   -1342.4013         2197    1.0920625 
  193000    809.89803   -831.87039    146.09881   -977.96919    158.48872    2794.1996   -3991.5833    272.29512   -1790.8082         2197    1.0920625 
  194000    814.11269    -815.1562    149.79559   -964.95179    153.29565     2819.739   -3990.5835    279.18509   -1309.0494         2197    1.0920625 
  195000     818.2896   -822.31999     173.0078   -995.32779    205.89282    2735.9178   -3990.6524     322.4474    2829.4225         2197    1.0920625 
  196000    822.49673   -792.69003    164.72611   -957.41613      170.989    2802.7033   -3990.6523     307.0122    2151.0371         2197    1.0920625 
  197000    826.71487   -801.28124    158.00881   -959.29005    162.85578    2804.3938    -3990.462    294.49268     645.6737         2197    1.0920625 
  198000    830.91227   -821.36541    157.55051   -978.91592    168.65098    2785.9911   -3990.3093     293.6385    282.29201         2197    1.0920625 
  199000    835.09591    -835.7644    169.69887   -1005.4633    194.79301    2739.7485   -3990.8295    316.28031     2053.582         2197    1.0920625 
  200000    839.30473    -821.2525    156.18498   -977.43748    165.69167    2781.2363   -3990.7788    291.09347    343.77919         2197    1.0920625 
Loop time of 839.305 on 1 procs for 200000 steps with 231 atoms

Performance: 20.588 ns/day, 1.166 hours/ns, 238.292 timesteps/s
99.3% CPU use with 1 MPI tasks x no OpenMP threads

MPI task timing breakdown:
Section |  min time  |  avg time  |  max time  |%varavg| %total
---------------------------------------------------------------
Pair    | 726.63     | 726.63     | 726.63     |   0.0 | 86.58
Bond    | 1.6838     | 1.6838     | 1.6838     |   0.0 |  0.20
Kspace  | 68.392     | 68.392     | 68.392     |   0.0 |  8.15
Neigh   | 26.742     | 26.742     | 26.742     |   0.0 |  3.19
Comm    | 7.0731     | 7.0731     | 7.0731     |   0.0 |  0.84
Output  | 0.17229    | 0.17229    | 0.17229    |   0.0 |  0.02
Modify  | 7.3315     | 7.3315     | 7.3315     |   0.0 |  0.87
Other   |            | 1.279      |            |       |  0.15

Nlocal:    231 ave 231 max 231 min
Histogram: 1 0 0 0 0 0 0 0 0 0
Nghost:    7020 ave 7020 max 7020 min
Histogram: 1 0 0 0 0 0 0 0 0 0
Neighs:    139849 ave 139849 max 139849 min
Histogram: 1 0 0 0 0 0 0 0 0 0

Total # of neighbors = 139849
Ave neighs/atom = 605.407
Ave special neighs/atom = 2.03463
Neighbor list builds = 6418
Dangerous builds = 0
System init for write_data ...
PPPM initialization ...
  using 12-bit tables for long-range coulomb (../kspace.cpp:332)
  G vector (1/distance) = 0.257812
  grid = 10 10 10
  stencil order = 5
  estimated absolute RMS force accuracy = 0.00219313
  estimated relative force accuracy = 6.60454e-06
  using double precision KISS FFT
  3d grid and FFT values/proc = 4913 1000
Total wall time: 0:14:00
