    2    2    1    1
  0.3200866E+02  0.2481949E-09  0.2481949E-09  0.1200000E-08  0.5000000E-15
  1.000000000000000E-004
  CAR 
 raman                                   
      8      5     14
 
  0.0000000E+00  0.0000000E+00  0.0000000E+00  0.1111111E+00
    1      -21.146289   1.000000
    2       -9.284899   1.000000
    3       -4.969939   1.000000
    4       -4.626310   1.000000
    5        1.448807  -0.000000
    6        2.598743  -0.000000
    7        3.391959  -0.000000
    8        6.188163   0.000000
    9        6.562906   0.000000
   10        6.686658   0.000000
   11        7.795278   0.000000
   12        9.449224   0.000000
   13       10.283428   0.000000
   14       12.789266   0.000000
 
  0.3333333E+00  0.2775558E-16  0.4930381E-31  0.2222222E+00
    1      -18.585650   1.000000
    2      -11.296349   1.000000
    3       -7.587309   1.000000
    4       -6.357507   1.000000
    5        3.121531  -0.000000
    6        4.958646   0.000000
    7        5.721522   0.000000
    8        6.133400   0.000000
    9        6.952464   0.000000
   10        9.940000   0.000000
   11       11.250069   0.000000
   12       13.776924   0.000000
   13       14.418241   0.000000
   14       14.802924   0.000000
 
  0.0000000E+00  0.3333333E+00  0.7395571E-31  0.2222222E+00
    1      -18.593003   1.000000
    2      -11.377259   1.000000
    3       -7.454405   1.000000
    4       -6.324115   1.000000
    5        3.015432  -0.000000
    6        4.956568   0.000000
    7        5.749132   0.000000
    8        6.129197   0.000000
    9        6.952547   0.000000
   10        9.943119   0.000000
   11       11.250357   0.000000
   12       13.800829   0.000000
   13       14.169984   0.000000
   14       14.864686   0.000000
 
  0.3333333E+00  0.3333333E+00  0.4930381E-31  0.2222222E+00
    1      -14.339167   1.000000
    2      -14.291764   1.000000
    3      -12.184765   1.000000
    4       -1.865226   0.811964
    5       -1.704220   0.188036
    6        8.764480   0.000000
    7       10.873313   0.000000
    8       11.035141   0.000000
    9       11.584356   0.000000
   10       13.167099   0.000000
   11       13.196972   0.000000
   12       13.199589   0.000000
   13       13.310508   0.000000
   14       13.730496   0.000000
 
 -0.3333333E+00  0.3333333E+00  0.0000000E+00  0.2222222E+00
    1      -18.592680   1.000000
    2      -11.373860   1.000000
    3       -7.459773   1.000000
    4       -6.325677   1.000000
    5        3.020359  -0.000000
    6        4.956614   0.000000
    7        5.746131   0.000000
    8        6.129385   0.000000
    9        6.952528   0.000000
   10        9.942974   0.000000
   11       11.250338   0.000000
   12       13.799183   0.000000
   13       14.184494   0.000000
   14       14.861818   0.000000
