 vasp.5.4.4.18Apr17-6-g9f103f2a35 (build May 02 2017 19:20:32) complex          
  
 executed on    fermion-Intel-MKL date 2017.12.10  16:52:23
 running on    7 total cores
 distrk:  each k-point on    7 cores,    1 groups
 distr:  one band on NCORES_PER_BAND=   1 cores,    7 groups


--------------------------------------------------------------------------------------------------------


 INCAR:
 POTCAR:   PAW_PBE C 08Apr2002                    

 ----------------------------------------------------------------------------- 
|                                                                             |
|           W    W    AA    RRRRR   N    N  II  N    N   GGGG   !!!           |
|           W    W   A  A   R    R  NN   N  II  NN   N  G    G  !!!           |
|           W    W  A    A  R    R  N N  N  II  N N  N  G       !!!           |
|           W WW W  AAAAAA  RRRRR   N  N N  II  N  N N  G  GGG   !            |
|           WW  WW  A    A  R   R   N   NN  II  N   NN  G    G                |
|           W    W  A    A  R    R  N    N  II  N    N   GGGG   !!!           |
|                                                                             |
|      For optimal performance we recommend to set                            |
|        NCORE= 4 - approx SQRT( number of cores)                             |
|      NCORE specifies how many cores store one orbital (NPAR=cpu/NCORE).     |
|      This setting can  greatly improve the performance of VASP for DFT.     |
|      The default,   NCORE=1            might be grossly inefficient         |
|      on modern multi-core architectures or massively parallel machines.     |
|      Do your own testing !!!!                                               |
|      Unfortunately you need to use the default for GW and RPA calculations. |
|      (for HF NCORE is supported but not extensively tested yet)             |
|                                                                             |
 ----------------------------------------------------------------------------- 

 POTCAR:   PAW_PBE C 08Apr2002                    
   VRHFIN =C: s2p2                                                              
   LEXCH  = PE                                                                  
   EATOM  =   147.1560 eV,   10.8157 Ry                                         
                                                                                
   TITEL  = PAW_PBE C 08Apr2002                                                 
   LULTRA =        F    use ultrasoft PP ?                                      
   IUNSCR =        0    unscreen: 0-lin 1-nonlin 2-no                           
   RPACOR =     .000    partial core radius                                     
   POMASS =   12.011; ZVAL   =    4.000    mass and valenz                      
   RCORE  =    1.500    outmost cutoff radius                                   
   RWIGS  =    1.630; RWIGS  =     .863    wigner-seitz radius (au A)           
   ENMAX  =  400.000; ENMIN  =  300.000 eV                                      
   ICORE  =        2    local potential                                         
   LCOR   =        T    correct aug charges                                     
   LPAW   =        T    paw PP                                                  
   EAUG   =  644.873                                                            
   DEXC   =     .000                                                            
   RMAX   =    2.266    core radius for proj-oper                               
   RAUG   =    1.300    factor for augmentation sphere                          
   RDEP   =    1.501    radius for radial grids                                 
   RDEPT  =    1.300    core radius for aug-charge                              
   QCUT   =   -5.516; QGAM   =   11.032    optimization parameters              
                                                                                
   Description                                                                  
     l     E      TYP  RCUT    TYP  RCUT                                        
     0   .000     23  1.200                                                     
     0   .000     23  1.200                                                     
     1   .000     23  1.500                                                     
     1  2.500     23  1.500                                                     
     2   .000      7  1.500                                                     
  local pseudopotential read in
  atomic valenz-charges read in
  non local Contribution for L=           0  read in
    real space projection operators read in
  non local Contribution for L=           0  read in
    real space projection operators read in
  non local Contribution for L=           1  read in
    real space projection operators read in
  non local Contribution for L=           1  read in
    real space projection operators read in
    PAW grid and wavefunctions read in
 
   number of l-projection  operators is LMAX  =           4
   number of lm-projection operators is LMMAX =           8
 

 ----------------------------------------------------------------------------- 
|                                                                             |
|  ADVICE TO THIS USER RUNNING 'VASP/VAMP'   (HEAR YOUR MASTER'S VOICE ...):  |
|                                                                             |
|      You have a (more or less) 'small supercell' and for smaller cells      |
|      it is recommended  to use the reciprocal-space projection scheme!      |
|      The real space optimization is not  efficient for small cells and it   |
|      is also less accurate ...                                              |
|      Therefore set LREAL=.FALSE. in the  INCAR file                         |
|                                                                             |
 ----------------------------------------------------------------------------- 

 Optimization of the real space projectors (new method)

 maximal supplied QI-value         = 25.13
 optimisation between [QCUT,QGAM] = [ 10.05, 20.36] = [ 28.30,116.06] Ry 
 Optimized for a Real-space Cutoff    1.30 Angstroem

   l    n(q)    QCUT    max X(q) W(low)/X(q) W(high)/X(q)  e(spline) 
   0      8    10.053     5.582    0.43E-04    0.44E-04    0.61E-07
   0      8    10.053    69.432    0.49E-03    0.71E-03    0.18E-06
   1      7    10.053     2.780    0.78E-04    0.13E-03    0.11E-06
   1      7    10.053     4.549    0.23E-03    0.19E-03    0.20E-06
 PAW_PBE C 08Apr2002                    :
 energy of atom  1       EATOM= -147.1560
 kinetic energy error for atom=    0.0288 (will be added to EATOM!!)
 
 
 POSCAR: OUTCAR.0006.+1.out 1.0e-02              
  positions in cartesian coordinates
  No initial velocities read in
 exchange correlation table for  LEXCH =        8
   RHO(1)=    0.500       N(1)  =     2000
   RHO(2)=  100.500       N(2)  =     4000
 


--------------------------------------------------------------------------------------------------------


 ion  position               nearest neighbor table
   1  0.003  0.002  0.142-   2 1.43   2 1.43   2 1.45
   2  0.330  0.665  0.142-   1 1.43   1 1.43   1 1.45
 

IMPORTANT INFORMATION: All symmetrisations will be switched off!
NOSYMM: (Re-)initialisation of all symmetry stuff for point group C_1.

 
 
 KPOINTS: K-Points                                

Automatic generation of k-mesh.
Space group operators:
 irot       det(A)        alpha          n_x          n_y          n_z        tau_x        tau_y        tau_z
    1     1.000000     0.000000     1.000000     0.000000     0.000000     0.000000     0.000000     0.000000
 
 Subroutine IBZKPT returns following result:
 ===========================================
 
 Found      5 irreducible k-points:
 
 Following reciprocal coordinates:
            Coordinates               Weight
  0.000000  0.000000  0.000000      1.000000
  0.333333  0.000000  0.000000      2.000000
  0.000000  0.333333  0.000000      2.000000
  0.333333  0.333333  0.000000      2.000000
 -0.333333  0.333333  0.000000      2.000000
 
 Following cartesian coordinates:
            Coordinates               Weight
  0.000000  0.000000  0.000000      1.000000
  0.134303  0.077540 -0.000000      2.000000
  0.000000  0.155080 -0.000000      2.000000
  0.134303  0.232620 -0.000000      2.000000
 -0.134303  0.077540  0.000000      2.000000
 
 
 Subroutine IBZKPT_HF returns following result:
 ==============================================
 
 Found      9 k-points in 1st BZ
 the following      9 k-points will be used (e.g. in the exchange kernel)
 Following reciprocal coordinates:   # in IRBZ
  0.000000  0.000000  0.000000    0.11111111   1 t-inv F
  0.333333  0.000000  0.000000    0.11111111   2 t-inv F
  0.000000  0.333333  0.000000    0.11111111   3 t-inv F
  0.333333  0.333333  0.000000    0.11111111   4 t-inv F
 -0.333333  0.333333  0.000000    0.11111111   5 t-inv F
 -0.333333 -0.000000 -0.000000    0.11111111   2 t-inv T
  0.000000 -0.333333 -0.000000    0.11111111   3 t-inv T
 -0.333333 -0.333333 -0.000000    0.11111111   4 t-inv T
  0.333333 -0.333333  0.000000    0.11111111   5 t-inv T


--------------------------------------------------------------------------------------------------------




 Dimension of arrays:
   k-points           NKPTS =      5   k-points in BZ     NKDIM =      5   number of bands    NBANDS=     14
   number of dos      NEDOS =    301   number of ions     NIONS =      2
   non local maximal  LDIM  =      4   non local SUM 2l+1 LMDIM =      8
   total plane-waves  NPLWV =   8640
   max r-space proj   IRMAX =   1295   max aug-charges    IRDMAX=  12939
   dimension x,y,z NGX =    12 NGY =   12 NGZ =   60
   dimension x,y,z NGXF=    24 NGYF=   24 NGZF=  120
   support grid    NGXF=    48 NGYF=   48 NGZF=  240
   ions per type =               2
   NGX,Y,Z   is equivalent  to a cutoff of   8.04,  8.04,  8.31 a.u.
   NGXF,Y,Z  is equivalent  to a cutoff of  16.08, 16.08, 16.62 a.u.

 SYSTEM =  raman                                   
 POSCAR =  OUTCAR.0006.+1.out 1.0e-02              

 Startparameter for this run:
   NWRITE =      3    write-flag & timer
   PREC   = n         normal or accurate (medium, high low for compatibility)
   ISTART =      0    job   : 0-new  1-cont  2-samecut
   ICHARG =      2    charge: 1-file 2-atom 10-const
   ISPIN  =      1    spin polarized calculation?
   LNONCOLLINEAR =      F non collinear calculations
   LSORBIT =      F    spin-orbit coupling
   INIWAV =      1    electr: 0-lowe 1-rand  2-diag
   LASPH  =      F    aspherical Exc in radial PAW
   METAGGA=      F    non-selfconsistent MetaGGA calc.

 Electronic Relaxation 1
   ENCUT  =  400.0 eV  29.40 Ry    5.42 a.u.   4.05  4.05 19.57*2*pi/ulx,y,z
   ENINI  =  400.0     initial cutoff
   ENAUG  =  644.9 eV  augmentation charge cutoff
   NELM   =     60;   NELMIN=  4; NELMDL= -5     # of ELM steps 
   EDIFF  = 0.1E-03   stopping-criterion for ELM
   LREAL  =      T    real-space projection
   NLSPLINE    = F    spline interpolate recip. space projectors
   LCOMPAT=      F    compatible to vasp.4.4
   GGA_COMPAT  = T    GGA compatible to vasp.4.4-vasp.4.6
   LMAXPAW     = -100 max onsite density
   LMAXMIX     =    2 max onsite mixed and CHGCAR
   VOSKOWN=      0    Vosko Wilk Nusair interpolation
   ROPT   =   -0.00050
 Ionic relaxation
   EDIFFG = 0.1E-02   stopping-criterion for IOM
   NSW    =      0    number of steps for IOM
   NBLOCK =      1;   KBLOCK =      1    inner block; outer block 
   IBRION =     -1    ionic relax: 0-MD 1-quasi-New 2-CG
   NFREE  =      0    steps in history (QN), initial steepest desc. (CG)
   ISIF   =      2    stress and relaxation
   IWAVPR =     10    prediction:  0-non 1-charg 2-wave 3-comb
   ISYM   =      0    0-nonsym 1-usesym 2-fastsym
   LCORR  =      T    Harris-Foulkes like correction to forces

   POTIM  = 0.5000    time-step for ionic-motion
   TEIN   =    0.0    initial temperature
   TEBEG  =    0.0;   TEEND  =   0.0 temperature during run
   SMASS  =  -3.00    Nose mass-parameter (am)
   estimated Nose-frequenzy (Omega)   =  0.10E-29 period in steps =****** mass=  -0.141E-27a.u.
   SCALEE = 1.0000    scale energy and forces
   NPACO  =    256;   APACO  = 16.0  distance and # of slots for P.C.
   PSTRESS=    0.0 pullay stress

  Mass of Ions in am
   POMASS =  12.01
  Ionic Valenz
   ZVAL   =   4.00
  Atomic Wigner-Seitz radii
   RWIGS  =  -1.00
  virtual crystal weights 
   VCA    =   1.00
   NELECT =       8.0000    total number of electrons
   NUPDOWN=      -1.0000    fix difference up-down

 DOS related values:
   EMIN   =  10.00;   EMAX   =-10.00  energy-range for DOS
   EFERMI =   0.00
   ISMEAR =     1;   SIGMA  =   0.20  broadening in eV -4-tet -1-fermi 0-gaus

 Electronic relaxation 2 (details)
   IALGO  =     38    algorithm
   LDIAG  =      T    sub-space diagonalisation (order eigenvalues)
   LSUBROT=      F    optimize rotation matrix (better conditioning)
   TURBO    =      0    0=normal 1=particle mesh
   IRESTART =      0    0=no restart 2=restart with 2 vectors
   NREBOOT  =      0    no. of reboots
   NMIN     =      0    reboot dimension
   EREF     =   0.00    reference energy to select bands
   IMIX   =      4    mixing-type and parameters
     AMIX     =   0.40;   BMIX     =  1.00
     AMIX_MAG =   1.60;   BMIX_MAG =  1.00
     AMIN     =   0.10
     WC   =   100.;   INIMIX=   1;  MIXPRE=   1;  MAXMIX= -45

 Intra band minimization:
   WEIMIN = 0.0000     energy-eigenvalue tresh-hold
   EBREAK =  0.18E-05  absolut break condition
   DEPER  =   0.30     relativ break condition  

   TIME   =   0.40     timestep for ELM

  volume/ion in A,a.u.               =      32.01       216.01
  Fermi-wavevector in a.u.,A,eV,Ry     =   0.818475  1.546694  9.114571  0.669902
  Thomas-Fermi vector in A             =   1.929109
 
 Write flags
   LWAVE        =      F    write WAVECAR
   LDOWNSAMPLE  =      F    k-point downsampling of WAVECAR
   LCHARG       =      F    write CHGCAR
   LVTOT        =      F    write LOCPOT, total local potential
   LVHAR        =      F    write LOCPOT, Hartree potential only
   LELF         =      F    write electronic localiz. function (ELF)
   LORBIT       =      0    0 simple, 1 ext, 2 COOP (PROOUT), +10 PAW based schemes


 Dipole corrections
   LMONO  =      F    monopole corrections only (constant potential shift)
   LDIPOL =      F    correct potential (dipole corrections)
   IDIPOL =      0    1-x, 2-y, 3-z, 4-all directions 
   EPSILON=  1.0000000 bulk dielectric constant

 Exchange correlation treatment:
   GGA     =    --    GGA type
   LEXCH   =     8    internal setting for exchange type
   VOSKOWN=      0    Vosko Wilk Nusair interpolation
   LHFCALC =     F    Hartree Fock is set to
   LHFONE  =     F    Hartree Fock one center treatment
   AEXX    =    0.0000 exact exchange contribution

 Linear response parameters
   LEPSILON=     T    determine dielectric tensor
   LRPA    =     F    only Hartree local field effects (RPA)
   LNABLA  =     F    use nabla operator in PAW spheres
   LVEL    =     F    velocity operator in full k-point grid
   LINTERFAST=   F  fast interpolation
   KINTER  =     0    interpolate to denser k-point grid
   CSHIFT  =0.1000    complex shift for real part using Kramers Kronig
   OMEGAMAX=  -1.0    maximum frequency
   DEG_THRESHOLD= 0.2000000E-02 threshold for treating states as degnerate
   RTIME   =   -0.100 relaxation time in fs
  (WPLASMAI=    0.000 imaginary part of plasma frequency in eV, 0.658/RTIME)
   DFIELD  = 0.0000000 0.0000000 0.0000000 field for delta impulse in time
 
 Orbital magnetization related:
   ORBITALMAG=     F  switch on orbital magnetization
   LCHIMAG   =     F  perturbation theory with respect to B field
   DQ        =  0.001000  dq finite difference perturbation B field
   LLRAUG    =     F  two centre corrections for induced B field



--------------------------------------------------------------------------------------------------------


 Static calculation
 charge density and potential will be updated during run
 non-spin polarized calculation
 Variant of blocked Davidson
 Davidson routine will perform the subspace rotation
 perform sub-space diagonalisation
    after iterative eigenvector-optimisation
 modified Broyden-mixing scheme, WC =      100.0
 initial mixing is a Kerker type mixing with AMIX =  0.4000 and BMIX =      1.0000
 Hartree-type preconditioning will be used
 using additional bands           10
 real space projection scheme for non local part
 calculate Harris-corrections to forces 
   (improved forces if not selfconsistent)
 use gradient corrections 
 use of overlap-Matrix (Vanderbilt PP)
 Methfessel and Paxton  Order N= 1 SIGMA  =   0.20


--------------------------------------------------------------------------------------------------------


  energy-cutoff  :      400.00
  volume of cell :       64.02
      direct lattice vectors                 reciprocal lattice vectors
     2.481948769  0.000000000  0.000000000     0.402909203  0.232619737 -0.000000000
    -1.240974385  2.149430685  0.000000000     0.000000000  0.465239473 -0.000000000
     0.000000000  0.000000000 12.000000000     0.000000000  0.000000000  0.083333333

  length of vectors
     2.481948769  2.481948769 12.000000000     0.465239473  0.465239473  0.083333333


 
 k-points in units of 2pi/SCALE and weight: K-Points                                
   0.00000000  0.00000000  0.00000000       0.111
   0.13430307  0.07753991 -0.00000000       0.222
   0.00000000  0.15507982 -0.00000000       0.222
   0.13430307  0.23261974 -0.00000000       0.222
  -0.13430307  0.07753991  0.00000000       0.222
 
 k-points in reciprocal lattice and weights: K-Points                                
   0.00000000  0.00000000  0.00000000       0.111
   0.33333333  0.00000000  0.00000000       0.222
   0.00000000  0.33333333  0.00000000       0.222
   0.33333333  0.33333333  0.00000000       0.222
  -0.33333333  0.33333333  0.00000000       0.222
 
 position of ions in fractional coordinates (direct lattice) 
   0.00328338  0.00176573  0.14167004
   0.33004024  0.66489935  0.14167024
 
 position of ions in cartesian coordinates  (Angst):
   0.00595796  0.00379531  1.70004046
  -0.00598010  1.42915506  1.70004282
 


--------------------------------------------------------------------------------------------------------


 k-point  1 :   0.0000 0.0000 0.0000  plane waves:    1125
 k-point  2 :   0.3333 0.0000 0.0000  plane waves:    1167
 k-point  3 :   0.0000 0.3333 0.0000  plane waves:    1167
 k-point  4 :   0.3333 0.3333 0.0000  plane waves:    1146
 k-point  5 :  -0.3333 0.3333 0.0000  plane waves:    1167

 maximum and minimum number of plane-waves per node :      1167     1125

 maximum number of plane-waves:      1167
 maximum index in each direction: 
   IXMAX=    4   IYMAX=    4   IZMAX=   19
   IXMIN=   -4   IYMIN=   -4   IZMIN=  -19


 serial   3D FFT for wavefunctions
 parallel 3D FFT for charge:
    minimum data exchange during FFTs selected (reduces bandwidth)


 total amount of memory used by VASP MPI-rank0    32837. kBytes
=======================================================================

   base      :      30000. kBytes
   nonlr-proj:        208. kBytes
   fftplans  :       1526. kBytes
   grid      :        907. kBytes
   one-center:          6. kBytes
   wavefun   :        190. kBytes
 
     INWAV:  cpu time    0.0000: real time    0.0000
 Broyden mixing: mesh for mixing (old mesh)
   NGX =  9   NGY =  9   NGZ = 39
  (NGX  = 24   NGY  = 24   NGZ  =120)
  gives a total of   3159 points

 initial charge density was supplied:
 charge density of overlapping atoms calculated
 number of electron       8.0000000 magnetization 
 keeping initial charge density in first step


--------------------------------------------------------------------------------------------------------


 Maximum index for non-local projection operator         1190
 Maximum index for augmentation-charges         1861 (set IRDMAX)


--------------------------------------------------------------------------------------------------------


 First call to EWALD:  gamma=   0.443
 Maximum number of real-space cells 5x 5x 1
 Maximum number of reciprocal cells 2x 2x 7

    FEWALD:  cpu time    0.0010: real time    0.0010


----------------------------------------- Iteration    1(   1)  ---------------------------------------


    POTLOK:  cpu time    0.0060: real time    0.0066
    SETDIJ:  cpu time    0.0030: real time    0.0030
     EDDAV:  cpu time    0.2010: real time    0.3814
       DOS:  cpu time    0.0000: real time    0.0003
    --------------------------------------------
      LOOP:  cpu time    0.2130: real time    0.3950

 eigenvalue-minimisations  :   140
 total energy-change (2. order) : 0.1320354E+02  (-0.3579445E+03)
 number of electron       8.0000000 magnetization 
 augmentation part        8.0000000 magnetization 

 Free energy of the ion-electron system (eV)
  ---------------------------------------------------
  alpha Z        PSCENC =         5.09113229
  Ewald energy   TEWEN  =       551.15178025
  -Hartree energ DENC   =      -777.06221196
  -exchange      EXHF   =         0.00000000
  -V(xc)+E(xc)   XCENC  =        27.46742033
  PAW double counting   =        75.66288619      -77.96384553
  entropy T*S    EENTRO =        -0.00279994
  eigenvalues    EBANDS =       -85.39526949
  atomic energy  EATOM  =       294.25444774
  Solvation  Ediel_sol  =         0.00000000
  ---------------------------------------------------
  free energy    TOTEN  =        13.20353988 eV

  energy without entropy =       13.20633982  energy(sigma->0) =       13.20447320


--------------------------------------------------------------------------------------------------------




 average (electrostatic) potential at core
  the test charge radii are     0.6991
  (the norm of the test charge is              1.0000)
       1 -62.8987       2 -62.8987
 
 
 
 E-fermi :   2.6937     XC(G=0):  -3.9365     alpha+bet : -3.1363


 k-point     1 :       0.0000    0.0000    0.0000
  band No.  band energies     occupation 
      1     -24.3194      2.00000
      2     -11.2515      2.00000
      3      -3.8066      2.00000
      4       1.2584      2.00000
      5       2.4970      2.04655
      6       2.9682     -0.06543
      7       3.8888     -0.00000
      8       6.9219     -0.00000
      9       8.2254      0.00000
     10      10.8930      0.00000
     11      13.9811      0.00000
     12      15.7989      0.00000
     13      20.7955      0.00000
     14      21.6919      0.00000

 k-point     2 :       0.3333    0.0000    0.0000
  band No.  band energies     occupation 
      1     -21.8163      2.00000
      2     -11.5383      2.00000
      3      -7.4899      2.00000
      4      -5.5371      2.00000
      5       5.1563     -0.00000
      6       6.6292     -0.00000
      7       7.5078     -0.00000
      8      10.0048      0.00000
      9      11.7223      0.00000
     10      13.7995      0.00000
     11      16.8935      0.00000
     12      17.9077      0.00000
     13      20.7300      0.00000
     14      25.0521      0.00000

 k-point     3 :       0.0000    0.3333    0.0000
  band No.  band energies     occupation 
      1     -21.8419      2.00000
      2     -10.4353      2.00000
      3      -7.6248      2.00000
      4      -3.2093      2.00000
      5       5.2356     -0.00000
      6       6.4866     -0.00000
      7       7.4918     -0.00000
      8      10.0332      0.00000
      9      11.7560      0.00000
     10      13.4211      0.00000
     11      16.3186      0.00000
     12      18.3907      0.00000
     13      18.9319      0.00000
     14      20.2816      0.00000

 k-point     4 :       0.3333    0.3333    0.0000
  band No.  band energies     occupation 
      1     -16.7328      2.00000
      2     -14.8620      2.00000
      3     -13.0266      2.00000
      4      -0.0546      2.00000
      5       2.9870     -0.05820
      6      12.2577      0.00000
      7      13.1402      0.00000
      8      13.5871      0.00000
      9      14.2746      0.00000
     10      14.8683      0.00000
     11      16.1991      0.00000
     12      17.6006      0.00000
     13      19.4917      0.00000
     14      21.2831      0.00000

 k-point     5 :      -0.3333    0.3333    0.0000
  band No.  band energies     occupation 
      1     -21.6746      2.00000
      2     -12.6307      2.00000
      3      -7.1815      2.00000
      4       2.6857      1.06764
      5       5.2770     -0.00000
      6       7.1474     -0.00000
      7       7.8933     -0.00000
      8       9.4467      0.00000
      9      12.0910      0.00000
     10      15.3495      0.00000
     11      17.8956      0.00000
     12      19.4695      0.00000
     13      21.9339      0.00000
     14      22.2443      0.00000


--------------------------------------------------------------------------------------------------------


 soft charge-density along one line, spin component           1
         0         1         2         3         4         5         6         7         8         9
 total charge-density along one line
 
 pseudopotential strength for first ion, spin component:           1
 10.479   0.027   0.000   0.000   0.001  -0.000  -0.000  -0.001
  0.027  -0.001  -0.000  -0.000  -0.000  -0.000  -0.000  -0.000
  0.000  -0.000  -4.632  -0.000   0.001  -0.003  -0.000   0.000
  0.000  -0.000  -0.000  -4.598  -0.000  -0.000   0.002  -0.000
  0.001  -0.000   0.001  -0.000  -4.631   0.000  -0.000  -0.003
 -0.000  -0.000  -0.003  -0.000   0.000  -0.776  -0.000   0.000
 -0.000  -0.000  -0.000   0.002  -0.000  -0.000  -0.775  -0.000
 -0.001  -0.000   0.000  -0.000  -0.003   0.000  -0.000  -0.776
 total augmentation occupancy for first ion, spin component:           1
  2.000   0.000   0.000   0.000   0.000   0.000   0.000   0.000
  0.000   0.000   0.000   0.000   0.000   0.000   0.000   0.000
  0.000   0.000   0.667   0.000   0.000   0.000   0.000   0.000
  0.000   0.000   0.000   0.667   0.000   0.000   0.000   0.000
  0.000   0.000   0.000   0.000   0.667   0.000   0.000   0.000
  0.000   0.000   0.000   0.000   0.000   0.000   0.000   0.000
  0.000   0.000   0.000   0.000   0.000   0.000   0.000   0.000
  0.000   0.000   0.000   0.000   0.000   0.000   0.000   0.000


----------------------------------------- Iteration    1(   2)  ---------------------------------------


     EDDAV:  cpu time    0.2200: real time    0.4013
       DOS:  cpu time    0.0030: real time    0.0021
    --------------------------------------------
      LOOP:  cpu time    0.2240: real time    0.4072

 eigenvalue-minimisations  :   224
 total energy-change (2. order) :-0.3199471E+02  (-0.2974852E+02)
 number of electron       8.0000000 magnetization 
 augmentation part        8.0000000 magnetization 

 Free energy of the ion-electron system (eV)
  ---------------------------------------------------
  alpha Z        PSCENC =         5.09113229
  Ewald energy   TEWEN  =       551.15178025
  -Hartree energ DENC   =      -777.06221196
  -exchange      EXHF   =         0.00000000
  -V(xc)+E(xc)   XCENC  =        27.46742033
  PAW double counting   =        75.66288619      -77.96384553
  entropy T*S    EENTRO =        -0.00109926
  eigenvalues    EBANDS =      -117.39167869
  atomic energy  EATOM  =       294.25444774
  Solvation  Ediel_sol  =         0.00000000
  ---------------------------------------------------
  free energy    TOTEN  =       -18.79116864 eV

  energy without entropy =      -18.79006938  energy(sigma->0) =      -18.79080222


--------------------------------------------------------------------------------------------------------




 average (electrostatic) potential at core
  the test charge radii are     0.6991
  (the norm of the test charge is              1.0000)
       1 -62.8987       2 -62.8987
 
 
 
 E-fermi :  -4.9250     XC(G=0):  -3.9365     alpha+bet : -3.1363


 k-point     1 :       0.0000    0.0000    0.0000
  band No.  band energies     occupation 
      1     -25.0231      2.00000
      2     -12.1695      2.00000
      3      -9.5900      2.00000
      4      -9.1197      2.00000
      5       1.2681      0.00000
      6       2.1859      0.00000
      7       2.5961      0.00000
      8       2.8471      0.00000
      9       3.6390      0.00000
     10       5.8843      0.00000
     11       6.4845      0.00000
     12       6.5497      0.00000
     13       7.7099      0.00000
     14      12.5845      0.00000

 k-point     2 :       0.3333    0.0000    0.0000
  band No.  band energies     occupation 
      1     -22.5545      2.00000
      2     -15.4817      2.00000
      3     -12.1264      2.00000
      4      -9.3590      2.00000
      5      -0.0806     -0.00000
      6       1.9622      0.00000
      7       4.7300      0.00000
      8       6.0455      0.00000
      9       7.1864      0.00000
     10       9.7106      0.00000
     11      10.2139      0.00000
     12      10.5386      0.00000
     13      11.1858      0.00000
     14      13.7678      0.00000

 k-point     3 :       0.0000    0.3333    0.0000
  band No.  band energies     occupation 
      1     -22.5589      2.00000
      2     -15.6311      2.00000
      3     -11.9118      2.00000
      4      -9.3130      2.00000
      5      -0.2001     -0.00000
      6       2.0891      0.00000
      7       4.7286      0.00000
      8       6.0440      0.00000
      9       7.1875      0.00000
     10       9.7279      0.00000
     11       9.8124      0.00000
     12      10.6064      0.00000
     13      11.1705      0.00000
     14      13.8280      0.00000

 k-point     4 :       0.3333    0.3333    0.0000
  band No.  band energies     occupation 
      1     -18.5306      2.00000
      2     -18.3699      2.00000
      3     -16.2896      2.00000
      4      -5.0614      1.90685
      5      -4.7886      0.09315
      6       7.3177      0.00000
      7       8.1630      0.00000
      8       9.5506      0.00000
      9      10.3636      0.00000
     10      12.5856      0.00000
     11      13.0079      0.00000
     12      13.3818      0.00000
     13      13.4585      0.00000
     14      14.3355      0.00000

 k-point     5 :      -0.3333    0.3333    0.0000
  band No.  band energies     occupation 
      1     -22.5440      2.00000
      2     -15.5949      2.00000
      3     -11.6034      2.00000
      4      -9.2626      2.00000
      5       0.1616     -0.00000
      6       2.8129      0.00000
      7       4.7466      0.00000
      8       6.1276      0.00000
      9       7.2184      0.00000
     10       9.8621      0.00000
     11      11.2678      0.00000
     12      14.0488      0.00000
     13      15.0555      0.00000
     14      16.7612      0.00000


--------------------------------------------------------------------------------------------------------


 soft charge-density along one line, spin component           1
         0         1         2         3         4         5         6         7         8         9
 total charge-density along one line
 
 pseudopotential strength for first ion, spin component:           1
 10.479   0.027   0.000   0.000   0.001  -0.000  -0.000  -0.001
  0.027  -0.001  -0.000  -0.000  -0.000  -0.000  -0.000  -0.000
  0.000  -0.000  -4.632  -0.000   0.001  -0.003  -0.000   0.000
  0.000  -0.000  -0.000  -4.598  -0.000  -0.000   0.002  -0.000
  0.001  -0.000   0.001  -0.000  -4.631   0.000  -0.000  -0.003
 -0.000  -0.000  -0.003  -0.000   0.000  -0.776  -0.000   0.000
 -0.000  -0.000  -0.000   0.002  -0.000  -0.000  -0.775  -0.000
 -0.001  -0.000   0.000  -0.000  -0.003   0.000  -0.000  -0.776
 total augmentation occupancy for first ion, spin component:           1
  2.000   0.000   0.000   0.000   0.000   0.000   0.000   0.000
  0.000   0.000   0.000   0.000   0.000   0.000   0.000   0.000
  0.000   0.000   0.667   0.000   0.000   0.000   0.000   0.000
  0.000   0.000   0.000   0.667   0.000   0.000   0.000   0.000
  0.000   0.000   0.000   0.000   0.667   0.000   0.000   0.000
  0.000   0.000   0.000   0.000   0.000   0.000   0.000   0.000
  0.000   0.000   0.000   0.000   0.000   0.000   0.000   0.000
  0.000   0.000   0.000   0.000   0.000   0.000   0.000   0.000


----------------------------------------- Iteration    1(   3)  ---------------------------------------


     EDDAV:  cpu time    0.2220: real time    0.4273
       DOS:  cpu time    0.0020: real time    0.0018
    --------------------------------------------
      LOOP:  cpu time    0.2240: real time    0.4312

 eigenvalue-minimisations  :   182
 total energy-change (2. order) :-0.3694117E+00  (-0.3683898E+00)
 number of electron       8.0000000 magnetization 
 augmentation part        8.0000000 magnetization 

 Free energy of the ion-electron system (eV)
  ---------------------------------------------------
  alpha Z        PSCENC =         5.09113229
  Ewald energy   TEWEN  =       551.15178025
  -Hartree energ DENC   =      -777.06221196
  -exchange      EXHF   =         0.00000000
  -V(xc)+E(xc)   XCENC  =        27.46742033
  PAW double counting   =        75.66288619      -77.96384553
  entropy T*S    EENTRO =        -0.00893938
  eigenvalues    EBANDS =      -117.75325027
  atomic energy  EATOM  =       294.25444774
  Solvation  Ediel_sol  =         0.00000000
  ---------------------------------------------------
  free energy    TOTEN  =       -19.16058034 eV

  energy without entropy =      -19.15164096  energy(sigma->0) =      -19.15760055


--------------------------------------------------------------------------------------------------------




 average (electrostatic) potential at core
  the test charge radii are     0.6991
  (the norm of the test charge is              1.0000)
       1 -62.8987       2 -62.8987
 
 
 
 E-fermi :  -5.0000     XC(G=0):  -3.9365     alpha+bet : -3.1363


 k-point     1 :       0.0000    0.0000    0.0000
  band No.  band energies     occupation 
      1     -25.0255      2.00000
      2     -12.1749      2.00000
      3      -9.7083      2.00000
      4      -9.2307      2.00000
      5       1.2661      0.00000
      6       2.0098      0.00000
      7       2.5877      0.00000
      8       2.5931      0.00000
      9       3.6369      0.00000
     10       5.5874      0.00000
     11       6.3338      0.00000
     12       6.4849      0.00000
     13       7.7016      0.00000
     14      12.5205      0.00000

 k-point     2 :       0.3333    0.0000    0.0000
  band No.  band energies     occupation 
      1     -22.5559      2.00000
      2     -15.4963      2.00000
      3     -12.1508      2.00000
      4      -9.3674      2.00000
      5      -0.1657     -0.00000
      6       1.8829      0.00000
      7       4.7256      0.00000
      8       6.0305      0.00000
      9       7.1839      0.00000
     10       9.6919      0.00000
     11       9.9467      0.00000
     12      10.3360      0.00000
     13      11.1634      0.00000
     14      13.6706      0.00000

 k-point     3 :       0.0000    0.3333    0.0000
  band No.  band energies     occupation 
      1     -22.5598      2.00000
      2     -15.6559      2.00000
      3     -11.9395      2.00000
      4      -9.3205      2.00000
      5      -0.3076     -0.00000
      6       1.9833      0.00000
      7       4.7235      0.00000
      8       6.0329      0.00000
      9       7.1839      0.00000
     10       9.6702      0.00000
     11       9.7091      0.00000
     12      10.4485      0.00000
     13      11.1352      0.00000
     14      13.7690      0.00000

 k-point     4 :       0.3333    0.3333    0.0000
  band No.  band energies     occupation 
      1     -18.5688      2.00000
      2     -18.3831      2.00000
      3     -16.3190      2.00000
      4      -5.1034      1.75845
      5      -4.8966      0.24155
      6       7.2130      0.00000
      7       7.7809      0.00000
      8       8.0853      0.00000
      9       9.8914      0.00000
     10      12.4502      0.00000
     11      12.5643      0.00000
     12      13.1464      0.00000
     13      13.1765      0.00000
     14      13.6498      0.00000

 k-point     5 :      -0.3333    0.3333    0.0000
  band No.  band energies     occupation 
      1     -22.5597      2.00000
      2     -15.6493      2.00000
      3     -11.9480      2.00000
      4      -9.3228      2.00000
      5      -0.3012     -0.00000
      6       1.9756      0.00000
      7       4.7237      0.00000
      8       6.0329      0.00000
      9       7.1840      0.00000
     10       9.7082      0.00000
     11       9.7676      0.00000
     12      10.4678      0.00000
     13      11.1375      0.00000
     14      13.7841      0.00000


--------------------------------------------------------------------------------------------------------


 soft charge-density along one line, spin component           1
         0         1         2         3         4         5         6         7         8         9
 total charge-density along one line
 
 pseudopotential strength for first ion, spin component:           1
 10.479   0.027   0.000   0.000   0.001  -0.000  -0.000  -0.001
  0.027  -0.001  -0.000  -0.000  -0.000  -0.000  -0.000  -0.000
  0.000  -0.000  -4.632  -0.000   0.001  -0.003  -0.000   0.000
  0.000  -0.000  -0.000  -4.598  -0.000  -0.000   0.002  -0.000
  0.001  -0.000   0.001  -0.000  -4.631   0.000  -0.000  -0.003
 -0.000  -0.000  -0.003  -0.000   0.000  -0.776  -0.000   0.000
 -0.000  -0.000  -0.000   0.002  -0.000  -0.000  -0.775  -0.000
 -0.001  -0.000   0.000  -0.000  -0.003   0.000  -0.000  -0.776
 total augmentation occupancy for first ion, spin component:           1
  2.000   0.000   0.000   0.000   0.000   0.000   0.000   0.000
  0.000   0.000   0.000   0.000   0.000   0.000   0.000   0.000
  0.000   0.000   0.667   0.000   0.000   0.000   0.000   0.000
  0.000   0.000   0.000   0.667   0.000   0.000   0.000   0.000
  0.000   0.000   0.000   0.000   0.667   0.000   0.000   0.000
  0.000   0.000   0.000   0.000   0.000   0.000   0.000   0.000
  0.000   0.000   0.000   0.000   0.000   0.000   0.000   0.000
  0.000   0.000   0.000   0.000   0.000   0.000   0.000   0.000


----------------------------------------- Iteration    1(   4)  ---------------------------------------


     EDDAV:  cpu time    0.1710: real time    0.3597
       DOS:  cpu time    0.0030: real time    0.0021
    --------------------------------------------
      LOOP:  cpu time    0.1740: real time    0.3637

 eigenvalue-minimisations  :   182
 total energy-change (2. order) :-0.4117347E-03  (-0.4117341E-03)
 number of electron       8.0000000 magnetization 
 augmentation part        8.0000000 magnetization 

 Free energy of the ion-electron system (eV)
  ---------------------------------------------------
  alpha Z        PSCENC =         5.09113229
  Ewald energy   TEWEN  =       551.15178025
  -Hartree energ DENC   =      -777.06221196
  -exchange      EXHF   =         0.00000000
  -V(xc)+E(xc)   XCENC  =        27.46742033
  PAW double counting   =        75.66288619      -77.96384553
  entropy T*S    EENTRO =        -0.00894548
  eigenvalues    EBANDS =      -117.75365591
  atomic energy  EATOM  =       294.25444774
  Solvation  Ediel_sol  =         0.00000000
  ---------------------------------------------------
  free energy    TOTEN  =       -19.16099208 eV

  energy without entropy =      -19.15204660  energy(sigma->0) =      -19.15801025


--------------------------------------------------------------------------------------------------------




 average (electrostatic) potential at core
  the test charge radii are     0.6991
  (the norm of the test charge is              1.0000)
       1 -62.8987       2 -62.8987
 
 
 
 E-fermi :  -5.0001     XC(G=0):  -3.9365     alpha+bet : -3.1363


 k-point     1 :       0.0000    0.0000    0.0000
  band No.  band energies     occupation 
      1     -25.0256      2.00000
      2     -12.1749      2.00000
      3      -9.7086      2.00000
      4      -9.2309      2.00000
      5       1.2661      0.00000
      6       2.0085      0.00000
      7       2.5877      0.00000
      8       2.5913      0.00000
      9       3.6369      0.00000
     10       5.5843      0.00000
     11       6.3327      0.00000
     12       6.4849      0.00000
     13       7.7016      0.00000
     14      12.5195      0.00000

 k-point     2 :       0.3333    0.0000    0.0000
  band No.  band energies     occupation 
      1     -22.5560      2.00000
      2     -15.4964      2.00000
      3     -12.1509      2.00000
      4      -9.3675      2.00000
      5      -0.1660     -0.00000
      6       1.8826      0.00000
      7       4.7255      0.00000
      8       6.0305      0.00000
      9       7.1839      0.00000
     10       9.6917      0.00000
     11       9.9387      0.00000
     12      10.3322      0.00000
     13      11.1632      0.00000
     14      13.6675      0.00000

 k-point     3 :       0.0000    0.3333    0.0000
  band No.  band energies     occupation 
      1     -22.5598      2.00000
      2     -15.6560      2.00000
      3     -11.9395      2.00000
      4      -9.3205      2.00000
      5      -0.3081     -0.00000
      6       1.9821      0.00000
      7       4.7235      0.00000
      8       6.0328      0.00000
      9       7.1839      0.00000
     10       9.6663      0.00000
     11       9.7085      0.00000
     12      10.4444      0.00000
     13      11.1344      0.00000
     14      13.7656      0.00000

 k-point     4 :       0.3333    0.3333    0.0000
  band No.  band energies     occupation 
      1     -18.5688      2.00000
      2     -18.3831      2.00000
      3     -16.3190      2.00000
      4      -5.1034      1.75832
      5      -4.8967      0.24168
      6       7.2127      0.00000
      7       7.7785      0.00000
      8       8.0603      0.00000
      9       9.8840      0.00000
     10      12.4432      0.00000
     11      12.5037      0.00000
     12      13.1351      0.00000
     13      13.1426      0.00000
     14      13.5260      0.00000

 k-point     5 :      -0.3333    0.3333    0.0000
  band No.  band energies     occupation 
      1     -22.5597      2.00000
      2     -15.6493      2.00000
      3     -11.9480      2.00000
      4      -9.3228      2.00000
      5      -0.3013     -0.00000
      6       1.9751      0.00000
      7       4.7236      0.00000
      8       6.0327      0.00000
      9       7.1839      0.00000
     10       9.6836      0.00000
     11       9.7077      0.00000
     12      10.4387      0.00000
     13      11.1357      0.00000
     14      13.7623      0.00000


--------------------------------------------------------------------------------------------------------


 soft charge-density along one line, spin component           1
         0         1         2         3         4         5         6         7         8         9
 total charge-density along one line
 
 pseudopotential strength for first ion, spin component:           1
 10.479   0.027   0.000   0.000   0.001  -0.000  -0.000  -0.001
  0.027  -0.001  -0.000  -0.000  -0.000  -0.000  -0.000  -0.000
  0.000  -0.000  -4.632  -0.000   0.001  -0.003  -0.000   0.000
  0.000  -0.000  -0.000  -4.598  -0.000  -0.000   0.002  -0.000
  0.001  -0.000   0.001  -0.000  -4.631   0.000  -0.000  -0.003
 -0.000  -0.000  -0.003  -0.000   0.000  -0.776  -0.000   0.000
 -0.000  -0.000  -0.000   0.002  -0.000  -0.000  -0.775  -0.000
 -0.001  -0.000   0.000  -0.000  -0.003   0.000  -0.000  -0.776
 total augmentation occupancy for first ion, spin component:           1
  2.000   0.000   0.000   0.000   0.000   0.000   0.000   0.000
  0.000   0.000   0.000   0.000   0.000   0.000   0.000   0.000
  0.000   0.000   0.667   0.000   0.000   0.000   0.000   0.000
  0.000   0.000   0.000   0.667   0.000   0.000   0.000   0.000
  0.000   0.000   0.000   0.000   0.667   0.000   0.000   0.000
  0.000   0.000   0.000   0.000   0.000   0.000   0.000   0.000
  0.000   0.000   0.000   0.000   0.000   0.000   0.000   0.000
  0.000   0.000   0.000   0.000   0.000   0.000   0.000   0.000


----------------------------------------- Iteration    1(   5)  ---------------------------------------


     EDDAV:  cpu time    0.1310: real time    0.3138
       DOS:  cpu time    0.0000: real time    0.0002
    CHARGE:  cpu time    0.0050: real time    0.0134
    MIXING:  cpu time    0.0000: real time    0.0003
    --------------------------------------------
      LOOP:  cpu time    0.1360: real time    0.3304

 eigenvalue-minimisations  :   168
 total energy-change (2. order) :-0.1019295E-05  (-0.1019449E-05)
 number of electron       8.0000000 magnetization 
 augmentation part        0.2144414 magnetization 

 Broyden mixing:
  rms(total) = 0.55017E+00    rms(broyden)= 0.55010E+00
  rms(prec ) = 0.67706E+00
  weight for this iteration     100.00

 Free energy of the ion-electron system (eV)
  ---------------------------------------------------
  alpha Z        PSCENC =         5.09113229
  Ewald energy   TEWEN  =       551.15178025
  -Hartree energ DENC   =      -777.06221196
  -exchange      EXHF   =         0.00000000
  -V(xc)+E(xc)   XCENC  =        27.46742033
  PAW double counting   =        75.66288619      -77.96384553
  entropy T*S    EENTRO =        -0.00894548
  eigenvalues    EBANDS =      -117.75365693
  atomic energy  EATOM  =       294.25444774
  Solvation  Ediel_sol  =         0.00000000
  ---------------------------------------------------
  free energy    TOTEN  =       -19.16099310 eV

  energy without entropy =      -19.15204762  energy(sigma->0) =      -19.15801127


--------------------------------------------------------------------------------------------------------




 average (electrostatic) potential at core
  the test charge radii are     0.6991
  (the norm of the test charge is              1.0000)
       1 -62.8987       2 -62.8987
 
 
 
 E-fermi :  -5.0001     XC(G=0):  -3.9365     alpha+bet : -3.1363


 k-point     1 :       0.0000    0.0000    0.0000
  band No.  band energies     occupation 
      1     -25.0256      2.00000
      2     -12.1749      2.00000
      3      -9.7086      2.00000
      4      -9.2309      2.00000
      5       1.2661      0.00000
      6       2.0085      0.00000
      7       2.5877      0.00000
      8       2.5912      0.00000
      9       3.6369      0.00000
     10       5.5842      0.00000
     11       6.3327      0.00000
     12       6.4849      0.00000
     13       7.7016      0.00000
     14      12.5195      0.00000

 k-point     2 :       0.3333    0.0000    0.0000
  band No.  band energies     occupation 
      1     -22.5560      2.00000
      2     -15.4964      2.00000
      3     -12.1509      2.00000
      4      -9.3675      2.00000
      5      -0.1660     -0.00000
      6       1.8826      0.00000
      7       4.7255      0.00000
      8       6.0305      0.00000
      9       7.1839      0.00000
     10       9.6917      0.00000
     11       9.9386      0.00000
     12      10.3321      0.00000
     13      11.1632      0.00000
     14      13.6675      0.00000

 k-point     3 :       0.0000    0.3333    0.0000
  band No.  band energies     occupation 
      1     -22.5598      2.00000
      2     -15.6560      2.00000
      3     -11.9395      2.00000
      4      -9.3205      2.00000
      5      -0.3081     -0.00000
      6       1.9821      0.00000
      7       4.7235      0.00000
      8       6.0328      0.00000
      9       7.1839      0.00000
     10       9.6663      0.00000
     11       9.7085      0.00000
     12      10.4443      0.00000
     13      11.1344      0.00000
     14      13.7656      0.00000

 k-point     4 :       0.3333    0.3333    0.0000
  band No.  band energies     occupation 
      1     -18.5688      2.00000
      2     -18.3831      2.00000
      3     -16.3190      2.00000
      4      -5.1034      1.75832
      5      -4.8967      0.24168
      6       7.2127      0.00000
      7       7.7785      0.00000
      8       8.0602      0.00000
      9       9.8839      0.00000
     10      12.4428      0.00000
     11      12.5017      0.00000
     12      13.1337      0.00000
     13      13.1407      0.00000
     14      13.5131      0.00000

 k-point     5 :      -0.3333    0.3333    0.0000
  band No.  band energies     occupation 
      1     -22.5597      2.00000
      2     -15.6493      2.00000
      3     -11.9480      2.00000
      4      -9.3228      2.00000
      5      -0.3013     -0.00000
      6       1.9751      0.00000
      7       4.7236      0.00000
      8       6.0327      0.00000
      9       7.1839      0.00000
     10       9.6821      0.00000
     11       9.7077      0.00000
     12      10.4383      0.00000
     13      11.1357      0.00000
     14      13.7609      0.00000


--------------------------------------------------------------------------------------------------------


 soft charge-density along one line, spin component           1
         0         1         2         3         4         5         6         7         8         9
 total charge-density along one line
 
 pseudopotential strength for first ion, spin component:           1
 10.479   0.027   0.000   0.000   0.001  -0.000  -0.000  -0.001
  0.027  -0.001  -0.000  -0.000  -0.000  -0.000  -0.000  -0.000
  0.000  -0.000  -4.632  -0.000   0.001  -0.003  -0.000   0.000
  0.000  -0.000  -0.000  -4.598  -0.000  -0.000   0.002  -0.000
  0.001  -0.000   0.001  -0.000  -4.631   0.000  -0.000  -0.003
 -0.000  -0.000  -0.003  -0.000   0.000  -0.776  -0.000   0.000
 -0.000  -0.000  -0.000   0.002  -0.000  -0.000  -0.775  -0.000
 -0.001  -0.000   0.000  -0.000  -0.003   0.000  -0.000  -0.776
 total augmentation occupancy for first ion, spin component:           1
  1.494  -0.938   0.005  -0.000   0.009   0.002   0.000   0.003
 -0.938   0.739  -0.005  -0.000  -0.008  -0.002  -0.000  -0.003
  0.005  -0.005   1.293  -0.000  -0.007   0.209  -0.000  -0.003
 -0.000  -0.000  -0.000   1.055  -0.000   0.000   0.077   0.000
  0.009  -0.008  -0.007  -0.000   1.285  -0.003  -0.000   0.205
  0.002  -0.002   0.209   0.000  -0.003   0.039  -0.000  -0.001
  0.000  -0.000  -0.000   0.077  -0.000  -0.000   0.008  -0.000
  0.003  -0.003  -0.003   0.000   0.205  -0.001  -0.000   0.038


----------------------------------------- Iteration    1(   6)  ---------------------------------------


    POTLOK:  cpu time    0.0040: real time    0.0044
    SETDIJ:  cpu time    0.0030: real time    0.0024
     EDDAV:  cpu time    0.2040: real time    0.3709
       DOS:  cpu time    0.0020: real time    0.0020
    CHARGE:  cpu time    0.0030: real time    0.0038
    MIXING:  cpu time    0.0010: real time    0.0004
    --------------------------------------------
      LOOP:  cpu time    0.2180: real time    0.3859

 eigenvalue-minimisations  :   182
 total energy-change (2. order) : 0.8892762E+00  (-0.8527919E-01)
 number of electron       8.0000000 magnetization 
 augmentation part        0.2054137 magnetization 

 Broyden mixing:
  rms(total) = 0.29169E+00    rms(broyden)= 0.29166E+00
  rms(prec ) = 0.36175E+00
  weight for this iteration     100.00

 eigenvalues of (default mixing * dielectric matrix)
  average eigenvalue GAMMA=   2.0591
  2.0591

 Free energy of the ion-electron system (eV)
  ---------------------------------------------------
  alpha Z        PSCENC =         5.09113229
  Ewald energy   TEWEN  =       551.15178025
  -Hartree energ DENC   =      -787.57083232
  -exchange      EXHF   =         0.00000000
  -V(xc)+E(xc)   XCENC  =        27.96075341
  PAW double counting   =       102.27238807     -104.74842842
  entropy T*S    EENTRO =        -0.01243288
  eigenvalues    EBANDS =      -106.67052503
  atomic energy  EATOM  =       294.25444774
  Solvation  Ediel_sol  =         0.00000000
  ---------------------------------------------------
  free energy    TOTEN  =       -18.27171688 eV

  energy without entropy =      -18.25928400  energy(sigma->0) =      -18.26757259


--------------------------------------------------------------------------------------------------------




 average (electrostatic) potential at core
  the test charge radii are     0.6991
  (the norm of the test charge is              1.0000)
       1 -60.5645       2 -60.5645
 
 
 
 E-fermi :  -3.9243     XC(G=0):  -4.1645     alpha+bet : -3.1363


 k-point     1 :       0.0000    0.0000    0.0000
  band No.  band energies     occupation 
      1     -23.6872      2.00000
      2     -11.2537      2.00000
      3      -7.9462      2.00000
      4      -7.5440      2.00000
      5       1.0522     -0.00000
      6       2.2709      0.00000
      7       3.1018      0.00000
      8       3.5028      0.00000
      9       4.0359      0.00000
     10       6.0896      0.00000
     11       6.9614      0.00000
     12       7.3641      0.00000
     13       7.7407      0.00000
     14      12.2549      0.00000

 k-point     2 :       0.3333    0.0000    0.0000
  band No.  band energies     occupation 
      1     -21.1714      2.00000
      2     -14.0053      2.00000
      3     -10.4759      2.00000
      4      -8.3874      2.00000
      5       0.9467     -0.00000
      6       3.1906      0.00000
      7       4.5560      0.00000
      8       5.7632      0.00000
      9       6.6488      0.00000
     10       9.3739      0.00000
     11      10.7846      0.00000
     12      11.5841      0.00000
     13      11.6867      0.00000
     14      13.7945      0.00000

 k-point     3 :       0.0000    0.3333    0.0000
  band No.  band energies     occupation 
      1     -21.1779      2.00000
      2     -14.1189      2.00000
      3     -10.3087      2.00000
      4      -8.3486      2.00000
      5       0.8262     -0.00000
      6       3.2438      0.00000
      7       4.5548      0.00000
      8       5.7623      0.00000
      9       6.6481      0.00000
     10       9.3830      0.00000
     11      10.7945      0.00000
     12      11.3262      0.00000
     13      11.7471      0.00000
     14      13.8737      0.00000

 k-point     4 :       0.3333    0.3333    0.0000
  band No.  band energies     occupation 
      1     -17.0462      2.00000
      2     -16.9413      2.00000
      3     -14.8696      2.00000
      4      -4.0133      1.67659
      5      -3.8353      0.32341
      6       7.5030      0.00000
      7       9.0179      0.00000
      8       9.2739      0.00000
      9      10.4000      0.00000
     10      12.4109      0.00000
     11      12.4895      0.00000
     12      12.8444      0.00000
     13      12.8465      0.00000
     14      13.2138      0.00000

 k-point     5 :      -0.3333    0.3333    0.0000
  band No.  band energies     occupation 
      1     -21.1776      2.00000
      2     -14.1142      2.00000
      3     -10.3153      2.00000
      4      -8.3505      2.00000
      5       0.8318     -0.00000
      6       3.2394      0.00000
      7       4.5549      0.00000
      8       5.7623      0.00000
      9       6.6482      0.00000
     10       9.3826      0.00000
     11      10.7941      0.00000
     12      11.3414      0.00000
     13      11.7434      0.00000
     14      13.8698      0.00000


--------------------------------------------------------------------------------------------------------


 soft charge-density along one line, spin component           1
         0         1         2         3         4         5         6         7         8         9
 total charge-density along one line
 
 pseudopotential strength for first ion, spin component:           1
 10.364   0.023   0.000   0.000   0.000  -0.000  -0.000  -0.000
  0.023  -0.001   0.000  -0.000   0.000  -0.000  -0.000  -0.000
  0.000   0.000  -4.487  -0.000   0.001  -0.012  -0.000   0.000
  0.000  -0.000  -0.000  -4.465  -0.000  -0.000  -0.008   0.000
  0.000   0.000   0.001  -0.000  -4.486   0.000   0.000  -0.012
 -0.000  -0.000  -0.012  -0.000   0.000  -0.774  -0.000   0.000
 -0.000  -0.000  -0.000  -0.008   0.000  -0.000  -0.774  -0.000
 -0.000  -0.000   0.000   0.000  -0.012   0.000  -0.000  -0.774
 total augmentation occupancy for first ion, spin component:           1
  1.468  -1.058   0.005  -0.000   0.007   0.002   0.000   0.002
 -1.058   0.916  -0.004   0.000  -0.006  -0.001   0.000  -0.002
  0.005  -0.004   1.262  -0.000  -0.008   0.219   0.000  -0.002
 -0.000   0.000  -0.000   0.996   0.000   0.000   0.093  -0.000
  0.007  -0.006  -0.008   0.000   1.253  -0.002  -0.000   0.215
  0.002  -0.001   0.219   0.000  -0.002   0.043   0.000  -0.001
  0.000   0.000   0.000   0.093  -0.000   0.000   0.011  -0.000
  0.002  -0.002  -0.002  -0.000   0.215  -0.001  -0.000   0.043


----------------------------------------- Iteration    1(   7)  ---------------------------------------


    POTLOK:  cpu time    0.0050: real time    0.0063
    SETDIJ:  cpu time    0.0020: real time    0.0022
     EDDAV:  cpu time    0.1720: real time    0.4167
       DOS:  cpu time    0.0000: real time    0.0002
    CHARGE:  cpu time    0.0070: real time    0.0068
    MIXING:  cpu time    0.0000: real time    0.0005
    --------------------------------------------
      LOOP:  cpu time    0.1860: real time    0.4348

 eigenvalue-minimisations  :   196
 total energy-change (2. order) : 0.3427027E+00  (-0.1023708E+00)
 number of electron       8.0000000 magnetization 
 augmentation part        0.1955510 magnetization 

 Broyden mixing:
  rms(total) = 0.49974E-01    rms(broyden)= 0.49791E-01
  rms(prec ) = 0.67162E-01
  weight for this iteration     100.00

 eigenvalues of (default mixing * dielectric matrix)
  average eigenvalue GAMMA=   2.2609
  2.1033  2.4186

 Free energy of the ion-electron system (eV)
  ---------------------------------------------------
  alpha Z        PSCENC =         5.09113229
  Ewald energy   TEWEN  =       551.15178025
  -Hartree energ DENC   =      -800.90404708
  -exchange      EXHF   =         0.00000000
  -V(xc)+E(xc)   XCENC  =        28.57776737
  PAW double counting   =       136.48102640     -139.10749585
  entropy T*S    EENTRO =        -0.01494627
  eigenvalues    EBANDS =       -93.45867898
  atomic energy  EATOM  =       294.25444774
  Solvation  Ediel_sol  =         0.00000000
  ---------------------------------------------------
  free energy    TOTEN  =       -17.92901414 eV

  energy without entropy =      -17.91406786  energy(sigma->0) =      -17.92403205


--------------------------------------------------------------------------------------------------------




 average (electrostatic) potential at core
  the test charge radii are     0.6991
  (the norm of the test charge is              1.0000)
       1 -58.0055       2 -58.0053
 
 
 
 E-fermi :  -2.6457     XC(G=0):  -4.1964     alpha+bet : -3.1363


 k-point     1 :       0.0000    0.0000    0.0000
  band No.  band energies     occupation 
      1     -22.0684      2.00000
      2     -10.1349      2.00000
      3      -5.8835      2.00000
      4      -5.5501      2.00000
      5       0.8944     -0.00000
      6       2.0095     -0.00000
      7       2.8919      0.00000
      8       5.2701      0.00000
      9       5.7606      0.00000
     10       5.9564      0.00000
     11       7.1702      0.00000
     12       8.5683      0.00000
     13       9.3919      0.00000
     14      12.1639      0.00000

 k-point     2 :       0.3333    0.0000    0.0000
  band No.  band energies     occupation 
      1     -19.5071      2.00000
      2     -12.2219      2.00000
      3      -8.5057      2.00000
      4      -7.2106      2.00000
      5       2.2587     -0.00000
      6       4.3902      0.00000
      7       4.8134      0.00000
      8       5.5449      0.00000
      9       6.4416      0.00000
     10       9.3045      0.00000
     11      10.6264      0.00000
     12      13.0038      0.00000
     13      13.5074      0.00000
     14      14.1171      0.00000

 k-point     3 :       0.0000    0.3333    0.0000
  band No.  band energies     occupation 
      1     -19.5149      2.00000
      2     -12.2972      2.00000
      3      -8.3777      2.00000
      4      -7.1781      2.00000
      5       2.1553     -0.00000
      6       4.3877      0.00000
      7       4.8341      0.00000
      8       5.5413      0.00000
      9       6.4413      0.00000
     10       9.3084      0.00000
     11      10.6265      0.00000
     12      13.0384      0.00000
     13      13.2612      0.00000
     14      14.1791      0.00000

 k-point     4 :       0.3333    0.3333    0.0000
  band No.  band energies     occupation 
      1     -15.2497      2.00000
      2     -15.2149      2.00000
      3     -13.1210      2.00000
      4      -2.7239      1.60886
      5      -2.5676      0.39114
      6       7.9967      0.00000
      7      10.1689      0.00000
      8      10.3427      0.00000
      9      10.9068      0.00000
     10      12.5501      0.00000
     11      12.6190      0.00000
     12      12.6324      0.00000
     13      12.6534      0.00000
     14      13.1148      0.00000

 k-point     5 :      -0.3333    0.3333    0.0000
  band No.  band energies     occupation 
      1     -19.5146      2.00000
      2     -12.2941      2.00000
      3      -8.3828      2.00000
      4      -7.1797      2.00000
      5       2.1601     -0.00000
      6       4.3876      0.00000
      7       4.8316      0.00000
      8       5.5414      0.00000
      9       6.4413      0.00000
     10       9.3083      0.00000
     11      10.6265      0.00000
     12      13.0363      0.00000
     13      13.2756      0.00000
     14      14.1762      0.00000


--------------------------------------------------------------------------------------------------------


 soft charge-density along one line, spin component           1
         0         1         2         3         4         5         6         7         8         9
 total charge-density along one line
 
 pseudopotential strength for first ion, spin component:           1
 10.225   0.019  -0.000  -0.000  -0.001   0.000   0.000   0.000
  0.019  -0.002   0.000   0.000   0.000   0.000   0.000   0.000
 -0.000   0.000  -4.332  -0.000   0.000  -0.019  -0.000   0.000
 -0.000   0.000  -0.000  -4.324   0.000  -0.000  -0.016  -0.000
 -0.001   0.000   0.000   0.000  -4.332   0.000  -0.000  -0.019
  0.000   0.000  -0.019  -0.000   0.000  -0.772  -0.000  -0.000
  0.000   0.000  -0.000  -0.016  -0.000  -0.000  -0.772   0.000
  0.000   0.000   0.000  -0.000  -0.019  -0.000   0.000  -0.772
 total augmentation occupancy for first ion, spin component:           1
  1.441  -1.162   0.004  -0.000   0.006   0.002   0.000   0.002
 -1.162   1.092  -0.005  -0.000  -0.007  -0.002  -0.000  -0.003
  0.004  -0.005   1.229  -0.000  -0.008   0.228   0.000  -0.002
 -0.000  -0.000  -0.000   0.932   0.000   0.000   0.107  -0.000
  0.006  -0.007  -0.008   0.000   1.220  -0.002  -0.000   0.225
  0.002  -0.002   0.228   0.000  -0.002   0.048   0.000  -0.001
  0.000  -0.000   0.000   0.107  -0.000   0.000   0.014  -0.000
  0.002  -0.003  -0.002  -0.000   0.225  -0.001  -0.000   0.047


----------------------------------------- Iteration    1(   8)  ---------------------------------------


    POTLOK:  cpu time    0.0050: real time    0.0051
    SETDIJ:  cpu time    0.0040: real time    0.0033
     EDDAV:  cpu time    0.2230: real time    0.5031
       DOS:  cpu time    0.0000: real time    0.0003
    CHARGE:  cpu time    0.0090: real time    0.0089
    MIXING:  cpu time    0.0000: real time    0.0007
    --------------------------------------------
      LOOP:  cpu time    0.2430: real time    0.5236

 eigenvalue-minimisations  :   210
 total energy-change (2. order) : 0.9806537E-02  (-0.7364700E-03)
 number of electron       8.0000000 magnetization 
 augmentation part        0.1954125 magnetization 

 Broyden mixing:
  rms(total) = 0.77066E-02    rms(broyden)= 0.76540E-02
  rms(prec ) = 0.26039E-01
  weight for this iteration     100.00

 eigenvalues of (default mixing * dielectric matrix)
  average eigenvalue GAMMA=   2.0150
  1.3248  2.6696  2.0507

 Free energy of the ion-electron system (eV)
  ---------------------------------------------------
  alpha Z        PSCENC =         5.09113229
  Ewald energy   TEWEN  =       551.15178025
  -Hartree energ DENC   =      -803.54330862
  -exchange      EXHF   =         0.00000000
  -V(xc)+E(xc)   XCENC  =        28.62142513
  PAW double counting   =       138.02817114     -140.59974299
  entropy T*S    EENTRO =        -0.01412784
  eigenvalues    EBANDS =       -90.90898470
  atomic energy  EATOM  =       294.25444774
  Solvation  Ediel_sol  =         0.00000000
  ---------------------------------------------------
  free energy    TOTEN  =       -17.91920760 eV

  energy without entropy =      -17.90507976  energy(sigma->0) =      -17.91449832


--------------------------------------------------------------------------------------------------------




 average (electrostatic) potential at core
  the test charge radii are     0.6991
  (the norm of the test charge is              1.0000)
       1 -57.8172       2 -57.8186
 
 
 
 E-fermi :  -2.3524     XC(G=0):  -4.1940     alpha+bet : -3.1363


 k-point     1 :       0.0000    0.0000    0.0000
  band No.  band energies     occupation 
      1     -21.7373      2.00000
      2      -9.8387      2.00000
      3      -5.5707      2.00000
      4      -5.2219      2.00000
      5       0.9470     -0.00000
      6       2.0643     -0.00000
      7       2.6948     -0.00000
      8       5.5906      0.00000
      9       5.8778      0.00000
     10       6.0928      0.00000
     11       7.1232      0.00000
     12       8.8624      0.00000
     13       9.6948      0.00000
     14      12.1499      0.00000

 k-point     2 :       0.3333    0.0000    0.0000
  band No.  band energies     occupation 
      1     -19.1779      2.00000
      2     -11.8897      2.00000
      3      -8.1866      2.00000
      4      -6.9166      2.00000
      5       2.5565     -0.00000
      6       4.4741      0.00000
      7       5.1260      0.00000
      8       5.6115      0.00000
      9       6.2393      0.00000
     10       9.2415      0.00000
     11      10.5851      0.00000
     12      13.2721      0.00000
     13      13.8222      0.00000
     14      14.2727      0.00000

 k-point     3 :       0.0000    0.3333    0.0000
  band No.  band energies     occupation 
      1     -19.1851      2.00000
      2     -11.9735      2.00000
      3      -8.0511      2.00000
      4      -6.8825      2.00000
      5       2.4480     -0.00000
      6       4.4726      0.00000
      7       5.1565      0.00000
      8       5.6080      0.00000
      9       6.2396      0.00000
     10       9.2447      0.00000
     11      10.5853      0.00000
     12      13.3003      0.00000
     13      13.5730      0.00000
     14      14.3329      0.00000

 k-point     4 :       0.3333    0.3333    0.0000
  band No.  band energies     occupation 
      1     -14.9363      2.00000
      2     -14.8825      2.00000
      3     -12.7799      2.00000
      4      -2.4342      1.63189
      5      -2.2707      0.36811
      6       8.3023      0.00000
      7      10.3968      0.00000
      8      10.5667      0.00000
      9      11.1424      0.00000
     10      12.4788      0.00000
     11      12.5622      0.00000
     12      12.6784      0.00000
     13      12.7008      0.00000
     14      12.9065      0.00000

 k-point     5 :      -0.3333    0.3333    0.0000
  band No.  band energies     occupation 
      1     -19.1847      2.00000
      2     -11.9699      2.00000
      3      -8.0565      2.00000
      4      -6.8841      2.00000
      5       2.4531     -0.00000
      6       4.4726      0.00000
      7       5.1534      0.00000
      8       5.6082      0.00000
      9       6.2395      0.00000
     10       9.2445      0.00000
     11      10.5852      0.00000
     12      13.2985      0.00000
     13      13.5876      0.00000
     14      14.3301      0.00000


--------------------------------------------------------------------------------------------------------


 soft charge-density along one line, spin component           1
         0         1         2         3         4         5         6         7         8         9
 total charge-density along one line
 
 pseudopotential strength for first ion, spin component:           1
 10.204   0.018  -0.000   0.000  -0.000   0.000  -0.000   0.000
  0.018  -0.002   0.000  -0.000   0.000   0.000  -0.000   0.000
 -0.000   0.000  -4.324  -0.000   0.000  -0.017   0.000   0.000
  0.000  -0.000  -0.000  -4.319   0.000   0.000  -0.014   0.000
 -0.000   0.000   0.000   0.000  -4.324   0.000   0.000  -0.017
  0.000   0.000  -0.017   0.000   0.000  -0.772  -0.000  -0.000
 -0.000  -0.000   0.000  -0.014   0.000  -0.000  -0.772   0.000
  0.000   0.000   0.000   0.000  -0.017  -0.000   0.000  -0.772
 total augmentation occupancy for first ion, spin component:           1
  1.442  -1.147   0.004   0.000   0.006   0.002   0.000   0.003
 -1.147   1.070  -0.006  -0.000  -0.009  -0.002  -0.000  -0.003
  0.004  -0.006   1.230   0.000  -0.007   0.228   0.000  -0.002
  0.000  -0.000   0.000   0.930  -0.000   0.000   0.106  -0.000
  0.006  -0.009  -0.007  -0.000   1.221  -0.002  -0.000   0.224
  0.002  -0.002   0.228   0.000  -0.002   0.048   0.000  -0.001
  0.000  -0.000   0.000   0.106  -0.000   0.000   0.014  -0.000
  0.003  -0.003  -0.002  -0.000   0.224  -0.001  -0.000   0.047


----------------------------------------- Iteration    1(   9)  ---------------------------------------


    POTLOK:  cpu time    0.0060: real time    0.0056
    SETDIJ:  cpu time    0.0050: real time    0.0046
     EDDAV:  cpu time    0.3899: real time    0.7179
       DOS:  cpu time    0.0000: real time    0.0003
    CHARGE:  cpu time    0.0140: real time    0.0137
    MIXING:  cpu time    0.0010: real time    0.0008
    --------------------------------------------
      LOOP:  cpu time    0.4159: real time    0.7456

 eigenvalue-minimisations  :   252
 total energy-change (2. order) : 0.1996076E-02  (-0.1221344E-03)
 number of electron       8.0000000 magnetization 
 augmentation part        0.1951488 magnetization 

 Broyden mixing:
  rms(total) = 0.68366E-02    rms(broyden)= 0.68298E-02
  rms(prec ) = 0.20184E-01
  weight for this iteration     100.00

 eigenvalues of (default mixing * dielectric matrix)
  average eigenvalue GAMMA=   1.8875
  2.7722  2.1542  1.8216  0.8021

 Free energy of the ion-electron system (eV)
  ---------------------------------------------------
  alpha Z        PSCENC =         5.09113229
  Ewald energy   TEWEN  =       551.15178025
  -Hartree energ DENC   =      -804.78679567
  -exchange      EXHF   =         0.00000000
  -V(xc)+E(xc)   XCENC  =        28.64495217
  PAW double counting   =       138.31240926     -140.88185603
  entropy T*S    EENTRO =        -0.01428417
  eigenvalues    EBANDS =       -89.68899737
  atomic energy  EATOM  =       294.25444774
  Solvation  Ediel_sol  =         0.00000000
  ---------------------------------------------------
  free energy    TOTEN  =       -17.91721152 eV

  energy without entropy =      -17.90292735  energy(sigma->0) =      -17.91245013


--------------------------------------------------------------------------------------------------------




 average (electrostatic) potential at core
  the test charge radii are     0.6991
  (the norm of the test charge is              1.0000)
       1 -57.6642       2 -57.6605
 
 
 
 E-fermi :  -2.2102     XC(G=0):  -4.1563     alpha+bet : -3.1363


 k-point     1 :       0.0000    0.0000    0.0000
  band No.  band energies     occupation 
      1     -21.5831      2.00000
      2      -9.7013      2.00000
      3      -5.4095      2.00000
      4      -5.0642      2.00000
      5       0.9821     -0.00000
      6       2.1187     -0.00000
      7       2.6659     -0.00000
      8       5.7475      0.00000
      9       5.8804      0.00000
     10       6.2473      0.00000
     11       7.1720      0.00000
     12       9.0134      0.00000
     13       9.8472      0.00000
     14      12.1914      0.00000

 k-point     2 :       0.3333    0.0000    0.0000
  band No.  band energies     occupation 
      1     -19.0230      2.00000
      2     -11.7341      2.00000
      3      -8.0268      2.00000
      4      -6.7773      2.00000
      5       2.6984     -0.00000
      6       4.5169      0.00000
      7       5.2761      0.00000
      8       5.6679      0.00000
      9       6.2113      0.00000
     10       9.2522      0.00000
     11      10.6351      0.00000
     12      13.3938      0.00000
     13      13.9790      0.00000
     14      14.3480      0.00000

 k-point     3 :       0.0000    0.3333    0.0000
  band No.  band energies     occupation 
      1     -19.0303      2.00000
      2     -11.8159      2.00000
      3      -7.8932      2.00000
      4      -6.7435      2.00000
      5       2.5909     -0.00000
      6       4.5153      0.00000
      7       5.3040      0.00000
      8       5.6643      0.00000
      9       6.2119      0.00000
     10       9.2550      0.00000
     11      10.6352      0.00000
     12      13.4211      0.00000
     13      13.7304      0.00000
     14      14.4070      0.00000

 k-point     4 :       0.3333    0.3333    0.0000
  band No.  band energies     occupation 
      1     -14.7784      2.00000
      2     -14.7289      2.00000
      3     -12.6226      2.00000
      4      -2.2913      1.62757
      5      -2.1292      0.37243
      6       8.4118      0.00000
      7      10.5028      0.00000
      8      10.6685      0.00000
      9      11.2231      0.00000
     10      12.4926      0.00000
     11      12.5710      0.00000
     12      12.7304      0.00000
     13      12.7551      0.00000
     14      12.8882      0.00000

 k-point     5 :      -0.3333    0.3333    0.0000
  band No.  band energies     occupation 
      1     -19.0299      2.00000
      2     -11.8125      2.00000
      3      -7.8986      2.00000
      4      -6.7451      2.00000
      5       2.5959     -0.00000
      6       4.5154      0.00000
      7       5.3010      0.00000
      8       5.6644      0.00000
      9       6.2118      0.00000
     10       9.2548      0.00000
     11      10.6352      0.00000
     12      13.4193      0.00000
     13      13.7449      0.00000
     14      14.4042      0.00000


--------------------------------------------------------------------------------------------------------


 soft charge-density along one line, spin component           1
         0         1         2         3         4         5         6         7         8         9
 total charge-density along one line
 
 pseudopotential strength for first ion, spin component:           1
 10.194   0.018  -0.000   0.000  -0.000   0.000  -0.000   0.000
  0.018  -0.002   0.000  -0.000   0.000   0.000  -0.000   0.000
 -0.000   0.000  -4.316  -0.000   0.000  -0.017   0.000   0.000
  0.000  -0.000  -0.000  -4.311   0.000   0.000  -0.014   0.000
 -0.000   0.000   0.000   0.000  -4.316   0.000   0.000  -0.017
  0.000   0.000  -0.017   0.000   0.000  -0.772  -0.000  -0.000
 -0.000  -0.000   0.000  -0.014   0.000  -0.000  -0.772   0.000
  0.000   0.000   0.000   0.000  -0.017  -0.000   0.000  -0.772
 total augmentation occupancy for first ion, spin component:           1
  1.442  -1.145   0.004   0.000   0.006   0.002   0.000   0.002
 -1.145   1.066  -0.006  -0.000  -0.009  -0.002  -0.000  -0.003
  0.004  -0.006   1.230   0.000  -0.007   0.227   0.000  -0.002
  0.000  -0.000   0.000   0.930  -0.000  -0.000   0.106   0.000
  0.006  -0.009  -0.007  -0.000   1.220  -0.002  -0.000   0.224
  0.002  -0.002   0.227  -0.000  -0.002   0.048   0.000  -0.001
  0.000  -0.000   0.000   0.106  -0.000   0.000   0.014  -0.000
  0.002  -0.003  -0.002   0.000   0.224  -0.001  -0.000   0.047


----------------------------------------- Iteration    1(  10)  ---------------------------------------


    POTLOK:  cpu time    0.0060: real time    0.0058
    SETDIJ:  cpu time    0.0040: real time    0.0044
     EDDAV:  cpu time    0.1500: real time    0.2897
       DOS:  cpu time    0.0020: real time    0.0017
    CHARGE:  cpu time    0.0050: real time    0.0048
    MIXING:  cpu time    0.0000: real time    0.0004
    --------------------------------------------
      LOOP:  cpu time    0.1680: real time    0.3097

 eigenvalue-minimisations  :   154
 total energy-change (2. order) : 0.1586148E-02  (-0.2242461E-03)
 number of electron       8.0000000 magnetization 
 augmentation part        0.1949514 magnetization 

 Broyden mixing:
  rms(total) = 0.98042E-02    rms(broyden)= 0.97846E-02
  rms(prec ) = 0.15076E-01
  weight for this iteration     100.00

 eigenvalues of (default mixing * dielectric matrix)
  average eigenvalue GAMMA=   1.8290
  3.2893  2.4967  1.9762  0.9722  0.4107

 Free energy of the ion-electron system (eV)
  ---------------------------------------------------
  alpha Z        PSCENC =         5.09113229
  Ewald energy   TEWEN  =       551.15178025
  -Hartree energ DENC   =      -806.81572504
  -exchange      EXHF   =         0.00000000
  -V(xc)+E(xc)   XCENC  =        28.66740852
  PAW double counting   =       137.48353078     -140.05562745
  entropy T*S    EENTRO =        -0.01452510
  eigenvalues    EBANDS =       -87.67804737
  atomic energy  EATOM  =       294.25444774
  Solvation  Ediel_sol  =         0.00000000
  ---------------------------------------------------
  free energy    TOTEN  =       -17.91562538 eV

  energy without entropy =      -17.90110027  energy(sigma->0) =      -17.91078367


--------------------------------------------------------------------------------------------------------




 average (electrostatic) potential at core
  the test charge radii are     0.6991
  (the norm of the test charge is              1.0000)
       1 -57.3899       2 -57.4152
 
 
 
 E-fermi :  -1.9648     XC(G=0):  -4.0065     alpha+bet : -3.1363


 k-point     1 :       0.0000    0.0000    0.0000
  band No.  band energies     occupation 
      1     -21.3297      2.00000
      2      -9.4622      2.00000
      3      -5.1517      2.00000
      4      -4.8119      2.00000
      5       1.1391     -0.00000
      6       2.3595     -0.00000
      7       2.6678     -0.00000
      8       5.9487      0.00000
      9       6.0043      0.00000
     10       6.5002      0.00000
     11       7.3758      0.00000
     12       9.2679      0.00000
     13      10.1017      0.00000
     14      12.3915      0.00000

 k-point     2 :       0.3333    0.0000    0.0000
  band No.  band energies     occupation 
      1     -18.7691      2.00000
      2     -11.4814      2.00000
      3      -7.7702      2.00000
      4      -6.5357      2.00000
      5       2.9427     -0.00000
      6       4.6832      0.00000
      7       5.5234      0.00000
      8       5.9077      0.00000
      9       6.2131      0.00000
     10       9.3310      0.00000
     11      10.8421      0.00000
     12      13.6174      0.00000
     13      14.2336      0.00000
     14      14.5439      0.00000

 k-point     3 :       0.0000    0.3333    0.0000
  band No.  band energies     occupation 
      1     -18.7766      2.00000
      2     -11.5603      2.00000
      3      -7.6392      2.00000
      4      -6.5025      2.00000
      5       2.8371     -0.00000
      6       4.6816      0.00000
      7       5.5466      0.00000
      8       5.9042      0.00000
      9       6.2145      0.00000
     10       9.3333      0.00000
     11      10.8421      0.00000
     12      13.6447      0.00000
[...]


   POT+DIJ:  cpu time    0.0170: real time    0.0174
    HAMIL1:  cpu time    0.0160: real time    0.0442
    LRDIAG:  cpu time    0.0020: real time    0.0025
    LRDIIS:  cpu time    0.0260: real time    0.0370
    LRDIAG:  cpu time    0.0020: real time    0.0016
    MIXING:  cpu time    0.0000: real time    0.0007
    --------------------------------------------
      LOOP:  cpu time    0.0690: real time    0.1093

 Broyden mixing:
  rms(total) = 0.20099E-05    rms(broyden)= 0.20085E-05
  rms(prec ) = 0.23886E-05
  weight for this iteration     100.00

 eigenvalues of (default mixing * dielectric matrix)
  average eigenvalue GAMMA=   1.6331
  0.4036  3.0089  2.7289  2.3970  2.3970  1.6444  1.3074  0.9861  1.0039  1.0039
  1.0835

 Free energy of the ion-electron system (eV)
  ---------------------------------------------------
  -Hartree energ DENC   =      -134.55087330
  -V(xc)+E(xc)   XCENC  =         8.62408964
  PAW double counting   =       127.66437819     -127.79453403
  entropy T*S    EENTRO =         0.00000000
  eigenvalues    EBANDS =      -131.70776667
  ---------------------------------------------------
  free energy    TOTEN  =      -257.76470617 eV

  energy without entropy =     -257.76470617


----------------------------------------- Iteration    2(  14)  ---------------------------------------


   POT+DIJ:  cpu time    0.0140: real time    0.0139
    HAMIL1:  cpu time    0.0090: real time    0.0496
    LRDIAG:  cpu time    0.0030: real time    0.0025
    LRDIIS:  cpu time    0.0250: real time    0.0293
    LRDIAG:  cpu time    0.0020: real time    0.0023
    MIXING:  cpu time    0.0010: real time    0.0009
    --------------------------------------------
      LOOP:  cpu time    0.0600: real time    0.1049

 Broyden mixing:
  rms(total) = 0.60319E-06    rms(broyden)= 0.59917E-06
  rms(prec ) = 0.77183E-06
  weight for this iteration     100.00

 eigenvalues of (default mixing * dielectric matrix)
  average eigenvalue GAMMA=   1.6837
  0.4036  3.0044  3.0044  2.5125  2.5125  2.1802  1.6691  0.9911  1.0027  1.0027
  1.0783  0.8428

 Free energy of the ion-electron system (eV)
  ---------------------------------------------------
  -Hartree energ DENC   =      -134.55083309
  -V(xc)+E(xc)   XCENC  =         8.62408517
  PAW double counting   =       127.66439547     -127.79455113
  entropy T*S    EENTRO =         0.00000000
  eigenvalues    EBANDS =      -131.70776139
  ---------------------------------------------------
  free energy    TOTEN  =      -257.76466497 eV

  energy without entropy =     -257.76466497


------------------------ aborting loop because EDIFF is reached ----------------------------------------


 change of polarisation eV/A/(eV/A) component  2 :   580.186   370.800     0.000
 dielectric tensor                  component  2 :  1639.970  1049.114     0.000


--------------------------------------------------------------------------------------------------------


    FORLOC:  cpu time    0.0020: real time    0.0014
    FORNL :  cpu time    0.0380: real time    0.3745
    STRESS:  cpu time    0.1610: real time    1.2584
    OFIELD:  cpu time    0.0000: real time    0.0001
    FORLOC:  cpu time    0.0000: real time    0.0003
    FORNL :  cpu time    0.0460: real time    0.4471
    STRESS:  cpu time    0.1460: real time    1.3333
    OFIELD:  cpu time    0.0000: real time    0.0001
    FORNLD:  cpu time    0.1290: real time    1.2083

 PIEZOELECTRIC TENSOR FIELD DIRECTION 2  (e Angst)
 -----------------------------------------------------------------------------
     9.44462 -6.01661  0.00003           ( -0.00038  0.00024 -0.00000)
    -6.01666 -9.44486 -0.00002           (  0.00024  0.00038  0.00000)
     0.00003 -0.00002  0.00007           ( -0.00000  0.00000  0.00000)

 PIEZOELECTRIC TENSOR FIELD DIRECTION 2  (C/m^2)
 -----------------------------------------------------------------------------
     2.36373 -1.50579  0.00001
    -1.50580 -2.36379 -0.00000
     0.00001 -0.00000  0.00002


      POSITION         DIRECTION 2           BORN EFFECTIVE CHARGE    (rigid.aug.   ionic)
 -----------------------------------------------------------------------------------------
      0.00596      0.00380      1.70004    -9.24696  8.12855  0.00043 ( -0.09742  4.00000)
     -0.00598      1.42916      1.70004     3.29294-11.65453 -0.00048 ( -0.09742  4.00000)
 -----------------------------------------------------------------------------------------
    total drift (improves with k-points):  -5.95402 -3.52598 -0.00005




--------------------------------------------------------------------------------------------------------


 Linear response to external field, progress :
  Direction:   3


----------------------------------------- Iteration    3(   1)  ---------------------------------------


   POT+DIJ:  cpu time    0.0140: real time    0.0151
    HAMIL1:  cpu time    0.0090: real time    0.0378
    LRDIAG:  cpu time    0.0020: real time    0.0023
    LRDIIS:  cpu time    0.0420: real time    0.0469
    LRDIAG:  cpu time    0.0010: real time    0.0018
    --------------------------------------------
      LOOP:  cpu time    0.0680: real time    0.1039

 Free energy of the ion-electron system (eV)
  ---------------------------------------------------
  -Hartree energ DENC   =         0.00000000
  -V(xc)+E(xc)   XCENC  =         0.00000000
  PAW double counting   =         0.00000000        0.00000000
  entropy T*S    EENTRO =         0.00000000
  eigenvalues    EBANDS =        -0.08642951
  ---------------------------------------------------
  free energy    TOTEN  =        -0.08642951 eV

  energy without entropy =       -0.08642951


----------------------------------------- Iteration    3(   2)  ---------------------------------------


   POT+DIJ:  cpu time    0.0140: real time    0.0140
    HAMIL1:  cpu time    0.0100: real time    0.0321
    LRDIAG:  cpu time    0.0020: real time    0.0024
    LRDIIS:  cpu time    0.0300: real time    0.0335
    LRDIAG:  cpu time    0.0020: real time    0.0014
    MIXING:  cpu time    0.0000: real time    0.0003
    --------------------------------------------
      LOOP:  cpu time    0.0630: real time    0.0892

 Broyden mixing:
  rms(total) = 0.48863E-01    rms(broyden)= 0.48856E-01
  rms(prec ) = 0.10682E+00
  weight for this iteration     100.00

 Free energy of the ion-electron system (eV)
  ---------------------------------------------------
  -Hartree energ DENC   =         0.00000000
  -V(xc)+E(xc)   XCENC  =         0.00000000
  PAW double counting   =         0.00000000        0.00000000
  entropy T*S    EENTRO =         0.00000000
  eigenvalues    EBANDS =        -0.08795360
  ---------------------------------------------------
  free energy    TOTEN  =        -0.08795360 eV

  energy without entropy =       -0.08795360


----------------------------------------- Iteration    3(   3)  ---------------------------------------


   POT+DIJ:  cpu time    0.0150: real time    0.0142
    HAMIL1:  cpu time    0.0070: real time    0.0346
    LRDIAG:  cpu time    0.0030: real time    0.0024
    LRDIIS:  cpu time    0.0210: real time    0.0239
    LRDIAG:  cpu time    0.0020: real time    0.0015
    MIXING:  cpu time    0.0010: real time    0.0003
    --------------------------------------------
      LOOP:  cpu time    0.0540: real time    0.0830

 Broyden mixing:
  rms(total) = 0.19205E-01    rms(broyden)= 0.19205E-01
  rms(prec ) = 0.53180E-01
  weight for this iteration     100.00

 eigenvalues of (default mixing * dielectric matrix)
  average eigenvalue GAMMA=   1.3190
  1.3190

 Free energy of the ion-electron system (eV)
  ---------------------------------------------------
  -Hartree energ DENC   =        -0.00614644
  -V(xc)+E(xc)   XCENC  =         0.00016052
  PAW double counting   =         0.00002366       -0.00002368
  entropy T*S    EENTRO =         0.00000000
  eigenvalues    EBANDS =        -0.04654696
  ---------------------------------------------------
  free energy    TOTEN  =        -0.05253290 eV

  energy without entropy =       -0.05253290


----------------------------------------- Iteration    3(   4)  ---------------------------------------


   POT+DIJ:  cpu time    0.0160: real time    0.0154
    HAMIL1:  cpu time    0.0080: real time    0.0318
    LRDIAG:  cpu time    0.0020: real time    0.0022
    LRDIIS:  cpu time    0.0200: real time    0.0265
    LRDIAG:  cpu time    0.0020: real time    0.0014
    MIXING:  cpu time    0.0010: real time    0.0003
    --------------------------------------------
      LOOP:  cpu time    0.0530: real time    0.0828

 Broyden mixing:
  rms(total) = 0.10659E-01    rms(broyden)= 0.10656E-01
  rms(prec ) = 0.23309E-01
  weight for this iteration     100.00

 eigenvalues of (default mixing * dielectric matrix)
  average eigenvalue GAMMA=   1.9219
  1.9219  1.9219

 Free energy of the ion-electron system (eV)
  ---------------------------------------------------
  -Hartree energ DENC   =        -0.01783769
  -V(xc)+E(xc)   XCENC  =         0.00042445
  PAW double counting   =         0.00001120       -0.00001016
  entropy T*S    EENTRO =         0.00000000
  eigenvalues    EBANDS =        -0.02557049
  ---------------------------------------------------
  free energy    TOTEN  =        -0.04298270 eV

  energy without entropy =       -0.04298270


----------------------------------------- Iteration    3(   5)  ---------------------------------------


   POT+DIJ:  cpu time    0.0130: real time    0.0128
    HAMIL1:  cpu time    0.0090: real time    0.0324
    LRDIAG:  cpu time    0.0020: real time    0.0024
    LRDIIS:  cpu time    0.0270: real time    0.0320
    LRDIAG:  cpu time    0.0010: real time    0.0016
    MIXING:  cpu time    0.0010: real time    0.0005
    --------------------------------------------
      LOOP:  cpu time    0.0590: real time    0.0878

 Broyden mixing:
  rms(total) = 0.43895E-02    rms(broyden)= 0.43885E-02
  rms(prec ) = 0.10444E-01
  weight for this iteration     100.00

 eigenvalues of (default mixing * dielectric matrix)
  average eigenvalue GAMMA=   2.3384
  2.7230  2.7230  1.5692

 Free energy of the ion-electron system (eV)
  ---------------------------------------------------
  -Hartree energ DENC   =        -0.02194784
  -V(xc)+E(xc)   XCENC  =         0.00051618
  PAW double counting   =         0.00019607       -0.00018838
  entropy T*S    EENTRO =         0.00000000
  eigenvalues    EBANDS =        -0.02016816
  ---------------------------------------------------
  free energy    TOTEN  =        -0.04159213 eV

  energy without entropy =       -0.04159213


----------------------------------------- Iteration    3(   6)  ---------------------------------------


   POT+DIJ:  cpu time    0.0140: real time    0.0144
    HAMIL1:  cpu time    0.0080: real time    0.0343
    LRDIAG:  cpu time    0.0030: real time    0.0024
    LRDIIS:  cpu time    0.0210: real time    0.0266
    LRDIAG:  cpu time    0.0010: real time    0.0015
    MIXING:  cpu time    0.0010: real time    0.0005
    --------------------------------------------
      LOOP:  cpu time    0.0530: real time    0.0851

 Broyden mixing:
  rms(total) = 0.20898E-02    rms(broyden)= 0.20873E-02
  rms(prec ) = 0.44567E-02
  weight for this iteration     100.00

 eigenvalues of (default mixing * dielectric matrix)
  average eigenvalue GAMMA=   2.0478
  3.0056  3.0056  1.5645  0.6153

 Free energy of the ion-electron system (eV)
  ---------------------------------------------------
  -Hartree energ DENC   =        -0.02289726
  -V(xc)+E(xc)   XCENC  =         0.00047400
  PAW double counting   =         0.00005832       -0.00005595
  entropy T*S    EENTRO =         0.00000000
  eigenvalues    EBANDS =        -0.01824433
  ---------------------------------------------------
  free energy    TOTEN  =        -0.04066523 eV

  energy without entropy =       -0.04066523


----------------------------------------- Iteration    3(   7)  ---------------------------------------


   POT+DIJ:  cpu time    0.0130: real time    0.0130
    HAMIL1:  cpu time    0.0100: real time    0.0417
    LRDIAG:  cpu time    0.0020: real time    0.0028
    LRDIIS:  cpu time    0.0230: real time    0.0295
    LRDIAG:  cpu time    0.0010: real time    0.0018
    MIXING:  cpu time    0.0000: real time    0.0004
    --------------------------------------------
      LOOP:  cpu time    0.0570: real time    0.0964

 Broyden mixing:
  rms(total) = 0.27004E-02    rms(broyden)= 0.26927E-02
  rms(prec ) = 0.39405E-02
  weight for this iteration     100.00

 eigenvalues of (default mixing * dielectric matrix)
  average eigenvalue GAMMA=   2.0827
  3.8486  3.1930  1.4882  1.4882  0.3958

 Free energy of the ion-electron system (eV)
  ---------------------------------------------------
  -Hartree energ DENC   =        -0.02272214
  -V(xc)+E(xc)   XCENC  =         0.00046086
  PAW double counting   =         0.00004504       -0.00004322
  entropy T*S    EENTRO =         0.00000000
  eigenvalues    EBANDS =        -0.01826519
  ---------------------------------------------------
  free energy    TOTEN  =        -0.04052465 eV

  energy without entropy =       -0.04052465


----------------------------------------- Iteration    3(   8)  ---------------------------------------


   POT+DIJ:  cpu time    0.0140: real time    0.0138
    HAMIL1:  cpu time    0.0070: real time    0.0311
    LRDIAG:  cpu time    0.0030: real time    0.0031
    LRDIIS:  cpu time    0.0260: real time    0.0306
    LRDIAG:  cpu time    0.0010: real time    0.0014
    MIXING:  cpu time    0.0000: real time    0.0004
    --------------------------------------------
      LOOP:  cpu time    0.0560: real time    0.0858

 Broyden mixing:
  rms(total) = 0.11528E-02    rms(broyden)= 0.11463E-02
  rms(prec ) = 0.20839E-02
  weight for this iteration     100.00

 eigenvalues of (default mixing * dielectric matrix)
  average eigenvalue GAMMA=   2.6479
  6.8691  3.4095  2.5996  1.5748  1.0434  0.3910

 Free energy of the ion-electron system (eV)
  ---------------------------------------------------
  -Hartree energ DENC   =        -0.02262064
  -V(xc)+E(xc)   XCENC  =         0.00044871
  PAW double counting   =         0.00004311       -0.00004128
  entropy T*S    EENTRO =         0.00000000
  eigenvalues    EBANDS =        -0.01831735
  ---------------------------------------------------
  free energy    TOTEN  =        -0.04048745 eV

  energy without entropy =       -0.04048745


------------------------ aborting loop because EDIFF is reached ----------------------------------------


 change of polarisation eV/A/(eV/A) component  3 :     0.022     0.014     0.075
 dielectric tensor                  component  3 :     0.062     0.040     1.212


--------------------------------------------------------------------------------------------------------


    FORLOC:  cpu time    0.0010: real time    0.0003
    FORNL :  cpu time    0.0460: real time    0.3708
    STRESS:  cpu time    0.1350: real time    1.3343
    OFIELD:  cpu time    0.0000: real time    0.0001
    FORLOC:  cpu time    0.0010: real time    0.0004
    FORNL :  cpu time    0.0430: real time    0.4351
    STRESS:  cpu time    0.1570: real time    1.7746
    OFIELD:  cpu time    0.0000: real time    0.0001
    FORNLD:  cpu time    0.1110: real time    1.5929

 PIEZOELECTRIC TENSOR FIELD DIRECTION 3  (e Angst)
 -----------------------------------------------------------------------------
     0.00009 -0.00006  0.00001           (  0.00000  0.00000  0.00000)
    -0.00006 -0.00010 -0.00014           (  0.00000  0.00000 -0.00001)
     0.00001 -0.00014 -0.00001           (  0.00000 -0.00001  0.00000)

 PIEZOELECTRIC TENSOR FIELD DIRECTION 3  (C/m^2)
 -----------------------------------------------------------------------------
     0.00002 -0.00002  0.00000
    -0.00002 -0.00002 -0.00004
     0.00000 -0.00004 -0.00000


      POSITION         DIRECTION 3           BORN EFFECTIVE CHARGE    (rigid.aug.   ionic)
 -----------------------------------------------------------------------------------------
      0.00596      0.00380      1.70004    -0.00002  0.00004 -0.00438 ( -0.09742  4.00000)
     -0.00598      1.42916      1.70004     0.00003 -0.00003 -0.00428 ( -0.09742  4.00000)
 -----------------------------------------------------------------------------------------
    total drift (improves with k-points):   0.00001  0.00001 -0.00866




--------------------------------------------------------------------------------------------------------




 MACROSCOPIC STATIC DIELECTRIC TENSOR (including local field effects in DFT)
 ------------------------------------------------------
        2627.808571  1639.969728     0.061858
        1677.289247  1049.113774     0.039508
           0.000068     0.000041     1.211628
 ------------------------------------------------------



--------------------------------------------------------------------------------------------------------




--------------------------------------------------------------------------------------------------------




 MACROSCOPIC STATIC DIELECTRIC TENSOR (including local field effects in DFT)
 ------------------------------------------------------
        2627.808571  1639.969728     0.061858
        1677.289247  1049.113774     0.039508
           0.000068     0.000041     1.211628
 ------------------------------------------------------


 PIEZOELECTRIC TENSOR  for field in x, y, z        (e  Angst)
          XX          YY          ZZ          XY          YZ          ZX
  --------------------------------------------------------------------------------
  x    15.02358   -15.02459     0.00034    -9.57011    -0.00003     0.00004
  y     9.44462    -9.44486     0.00007    -6.01666    -0.00002     0.00003
  z     0.00009    -0.00010    -0.00001    -0.00006    -0.00014     0.00001

 PIEZOELECTRIC TENSOR  for field in x, y, z        (C/m^2)
          XX          YY          ZZ          XY          YZ          ZX
  --------------------------------------------------------------------------------
  x     3.75999    -3.76024     0.00009    -2.39514    -0.00001     0.00001
  y     2.36373    -2.36379     0.00002    -1.50580    -0.00000     0.00001
  z     0.00002    -0.00002    -0.00000    -0.00002    -0.00004     0.00000
 
 BORN EFFECTIVE CHARGES (in e, cummulative output)
 -------------------------------------------------
 ion    1
    1    -9.99125    15.76360     0.00084
    2    -6.26995     9.89154     0.00045
    3    -0.00002     0.00003    -0.00005
 ion    2
    1     9.99125   -15.76360    -0.00084
    2     6.26995    -9.89154    -0.00045
    3     0.00002    -0.00003     0.00005


--------------------------------------------------------------------------------------------------------


     LOOP+:  cpu time    9.0426: real time   29.7587
    4ORBIT:  cpu time    0.0000: real time    0.0000

 total amount of memory used by VASP MPI-rank0    32837. kBytes
=======================================================================

   base      :      30000. kBytes
   nonlr-proj:        208. kBytes
   fftplans  :       1526. kBytes
   grid      :        907. kBytes
   one-center:          6. kBytes
   wavefun   :        190. kBytes
 
  
  
 General timing and accounting informations for this job:
 ========================================================
  
                  Total CPU time used (sec):       10.112
                            User time (sec):        9.045
                          System time (sec):        1.068
                         Elapsed time (sec):       31.813
  
                   Maximum memory used (kb):      297828.
                   Average memory used (kb):           0.
  
                          Minor page faults:        64483
                          Major page faults:            0
                 Voluntary context switches:        13417
