 vasp.5.4.4.18Apr17-6-g9f103f2a35 (build May 02 2017 19:20:32) complex          
  
 executed on    fermion-Intel-MKL date 2017.12.10  16:51:52
 running on    7 total cores
 distrk:  each k-point on    7 cores,    1 groups
 distr:  one band on NCORES_PER_BAND=   1 cores,    7 groups


--------------------------------------------------------------------------------------------------------


 INCAR:
 POTCAR:   PAW_PBE C 08Apr2002                    

 ----------------------------------------------------------------------------- 
|                                                                             |
|           W    W    AA    RRRRR   N    N  II  N    N   GGGG   !!!           |
|           W    W   A  A   R    R  NN   N  II  NN   N  G    G  !!!           |
|           W    W  A    A  R    R  N N  N  II  N N  N  G       !!!           |
|           W WW W  AAAAAA  RRRRR   N  N N  II  N  N N  G  GGG   !            |
|           WW  WW  A    A  R   R   N   NN  II  N   NN  G    G                |
|           W    W  A    A  R    R  N    N  II  N    N   GGGG   !!!           |
|                                                                             |
|      For optimal performance we recommend to set                            |
|        NCORE= 4 - approx SQRT( number of cores)                             |
|      NCORE specifies how many cores store one orbital (NPAR=cpu/NCORE).     |
|      This setting can  greatly improve the performance of VASP for DFT.     |
|      The default,   NCORE=1            might be grossly inefficient         |
|      on modern multi-core architectures or massively parallel machines.     |
|      Do your own testing !!!!                                               |
|      Unfortunately you need to use the default for GW and RPA calculations. |
|      (for HF NCORE is supported but not extensively tested yet)             |
|                                                                             |
 ----------------------------------------------------------------------------- 

 POTCAR:   PAW_PBE C 08Apr2002                    
   VRHFIN =C: s2p2                                                              
   LEXCH  = PE                                                                  
   EATOM  =   147.1560 eV,   10.8157 Ry                                         
                                                                                
   TITEL  = PAW_PBE C 08Apr2002                                                 
   LULTRA =        F    use ultrasoft PP ?                                      
   IUNSCR =        0    unscreen: 0-lin 1-nonlin 2-no                           
   RPACOR =     .000    partial core radius                                     
   POMASS =   12.011; ZVAL   =    4.000    mass and valenz                      
   RCORE  =    1.500    outmost cutoff radius                                   
   RWIGS  =    1.630; RWIGS  =     .863    wigner-seitz radius (au A)           
   ENMAX  =  400.000; ENMIN  =  300.000 eV                                      
   ICORE  =        2    local potential                                         
   LCOR   =        T    correct aug charges                                     
   LPAW   =        T    paw PP                                                  
   EAUG   =  644.873                                                            
   DEXC   =     .000                                                            
   RMAX   =    2.266    core radius for proj-oper                               
   RAUG   =    1.300    factor for augmentation sphere                          
   RDEP   =    1.501    radius for radial grids                                 
   RDEPT  =    1.300    core radius for aug-charge                              
   QCUT   =   -5.516; QGAM   =   11.032    optimization parameters              
                                                                                
   Description                                                                  
     l     E      TYP  RCUT    TYP  RCUT                                        
     0   .000     23  1.200                                                     
     0   .000     23  1.200                                                     
     1   .000     23  1.500                                                     
     1  2.500     23  1.500                                                     
     2   .000      7  1.500                                                     
  local pseudopotential read in
  atomic valenz-charges read in
  non local Contribution for L=           0  read in
    real space projection operators read in
  non local Contribution for L=           0  read in
    real space projection operators read in
  non local Contribution for L=           1  read in
    real space projection operators read in
  non local Contribution for L=           1  read in
    real space projection operators read in
    PAW grid and wavefunctions read in
 
   number of l-projection  operators is LMAX  =           4
   number of lm-projection operators is LMMAX =           8
 

 ----------------------------------------------------------------------------- 
|                                                                             |
|  ADVICE TO THIS USER RUNNING 'VASP/VAMP'   (HEAR YOUR MASTER'S VOICE ...):  |
|                                                                             |
|      You have a (more or less) 'small supercell' and for smaller cells      |
|      it is recommended  to use the reciprocal-space projection scheme!      |
|      The real space optimization is not  efficient for small cells and it   |
|      is also less accurate ...                                              |
|      Therefore set LREAL=.FALSE. in the  INCAR file                         |
|                                                                             |
 ----------------------------------------------------------------------------- 

 Optimization of the real space projectors (new method)

 maximal supplied QI-value         = 25.13
 optimisation between [QCUT,QGAM] = [ 10.05, 20.36] = [ 28.30,116.06] Ry 
 Optimized for a Real-space Cutoff    1.30 Angstroem

   l    n(q)    QCUT    max X(q) W(low)/X(q) W(high)/X(q)  e(spline) 
   0      8    10.053     5.582    0.43E-04    0.44E-04    0.61E-07
   0      8    10.053    69.432    0.49E-03    0.71E-03    0.18E-06
   1      7    10.053     2.780    0.78E-04    0.13E-03    0.11E-06
   1      7    10.053     4.549    0.23E-03    0.19E-03    0.20E-06
 PAW_PBE C 08Apr2002                    :
 energy of atom  1       EATOM= -147.1560
 kinetic energy error for atom=    0.0288 (will be added to EATOM!!)
 
 
 POSCAR: OUTCAR.0006.-1.out 1.0e-02              
  positions in cartesian coordinates
  No initial velocities read in
 exchange correlation table for  LEXCH =        8
   RHO(1)=    0.500       N(1)  =     2000
   RHO(2)=  100.500       N(2)  =     4000
 


--------------------------------------------------------------------------------------------------------


 ion  position               nearest neighbor table
   1  0.997  0.998  0.142-   2 1.42   2 1.44   2 1.44
   2  0.337  0.668  0.142-   1 1.42   1 1.44   1 1.44
 

IMPORTANT INFORMATION: All symmetrisations will be switched off!
NOSYMM: (Re-)initialisation of all symmetry stuff for point group C_1.

 
 
 KPOINTS: K-Points                                

Automatic generation of k-mesh.
Space group operators:
 irot       det(A)        alpha          n_x          n_y          n_z        tau_x        tau_y        tau_z
    1     1.000000     0.000000     1.000000     0.000000     0.000000     0.000000     0.000000     0.000000
 
 Subroutine IBZKPT returns following result:
 ===========================================
 
 Found      5 irreducible k-points:
 
 Following reciprocal coordinates:
            Coordinates               Weight
  0.000000  0.000000  0.000000      1.000000
  0.333333  0.000000  0.000000      2.000000
  0.000000  0.333333  0.000000      2.000000
  0.333333  0.333333  0.000000      2.000000
 -0.333333  0.333333  0.000000      2.000000
 
 Following cartesian coordinates:
            Coordinates               Weight
  0.000000  0.000000  0.000000      1.000000
  0.134303  0.077540 -0.000000      2.000000
  0.000000  0.155080 -0.000000      2.000000
  0.134303  0.232620 -0.000000      2.000000
 -0.134303  0.077540  0.000000      2.000000
 
 
 Subroutine IBZKPT_HF returns following result:
 ==============================================
 
 Found      9 k-points in 1st BZ
 the following      9 k-points will be used (e.g. in the exchange kernel)
 Following reciprocal coordinates:   # in IRBZ
  0.000000  0.000000  0.000000    0.11111111   1 t-inv F
  0.333333  0.000000  0.000000    0.11111111   2 t-inv F
  0.000000  0.333333  0.000000    0.11111111   3 t-inv F
  0.333333  0.333333  0.000000    0.11111111   4 t-inv F
 -0.333333  0.333333  0.000000    0.11111111   5 t-inv F
 -0.333333 -0.000000 -0.000000    0.11111111   2 t-inv T
  0.000000 -0.333333 -0.000000    0.11111111   3 t-inv T
 -0.333333 -0.333333 -0.000000    0.11111111   4 t-inv T
  0.333333 -0.333333  0.000000    0.11111111   5 t-inv T


--------------------------------------------------------------------------------------------------------




 Dimension of arrays:
   k-points           NKPTS =      5   k-points in BZ     NKDIM =      5   number of bands    NBANDS=     14
   number of dos      NEDOS =    301   number of ions     NIONS =      2
   non local maximal  LDIM  =      4   non local SUM 2l+1 LMDIM =      8
   total plane-waves  NPLWV =   8640
   max r-space proj   IRMAX =   1295   max aug-charges    IRDMAX=  12939
   dimension x,y,z NGX =    12 NGY =   12 NGZ =   60
   dimension x,y,z NGXF=    24 NGYF=   24 NGZF=  120
   support grid    NGXF=    48 NGYF=   48 NGZF=  240
   ions per type =               2
   NGX,Y,Z   is equivalent  to a cutoff of   8.04,  8.04,  8.31 a.u.
   NGXF,Y,Z  is equivalent  to a cutoff of  16.08, 16.08, 16.62 a.u.

 SYSTEM =  raman                                   
 POSCAR =  OUTCAR.0006.-1.out 1.0e-02              

 Startparameter for this run:
   NWRITE =      3    write-flag & timer
   PREC   = n         normal or accurate (medium, high low for compatibility)
   ISTART =      0    job   : 0-new  1-cont  2-samecut
   ICHARG =      2    charge: 1-file 2-atom 10-const
   ISPIN  =      1    spin polarized calculation?
   LNONCOLLINEAR =      F non collinear calculations
   LSORBIT =      F    spin-orbit coupling
   INIWAV =      1    electr: 0-lowe 1-rand  2-diag
   LASPH  =      F    aspherical Exc in radial PAW
   METAGGA=      F    non-selfconsistent MetaGGA calc.

 Electronic Relaxation 1
   ENCUT  =  400.0 eV  29.40 Ry    5.42 a.u.   4.05  4.05 19.57*2*pi/ulx,y,z
   ENINI  =  400.0     initial cutoff
   ENAUG  =  644.9 eV  augmentation charge cutoff
   NELM   =     60;   NELMIN=  4; NELMDL= -5     # of ELM steps 
   EDIFF  = 0.1E-03   stopping-criterion for ELM
   LREAL  =      T    real-space projection
   NLSPLINE    = F    spline interpolate recip. space projectors
   LCOMPAT=      F    compatible to vasp.4.4
   GGA_COMPAT  = T    GGA compatible to vasp.4.4-vasp.4.6
   LMAXPAW     = -100 max onsite density
   LMAXMIX     =    2 max onsite mixed and CHGCAR
   VOSKOWN=      0    Vosko Wilk Nusair interpolation
   ROPT   =   -0.00050
 Ionic relaxation
   EDIFFG = 0.1E-02   stopping-criterion for IOM
   NSW    =      0    number of steps for IOM
   NBLOCK =      1;   KBLOCK =      1    inner block; outer block 
   IBRION =     -1    ionic relax: 0-MD 1-quasi-New 2-CG
   NFREE  =      0    steps in history (QN), initial steepest desc. (CG)
   ISIF   =      2    stress and relaxation
   IWAVPR =     10    prediction:  0-non 1-charg 2-wave 3-comb
   ISYM   =      0    0-nonsym 1-usesym 2-fastsym
   LCORR  =      T    Harris-Foulkes like correction to forces

   POTIM  = 0.5000    time-step for ionic-motion
   TEIN   =    0.0    initial temperature
   TEBEG  =    0.0;   TEEND  =   0.0 temperature during run
   SMASS  =  -3.00    Nose mass-parameter (am)
   estimated Nose-frequenzy (Omega)   =  0.10E-29 period in steps =****** mass=  -0.141E-27a.u.
   SCALEE = 1.0000    scale energy and forces
   NPACO  =    256;   APACO  = 16.0  distance and # of slots for P.C.
   PSTRESS=    0.0 pullay stress

  Mass of Ions in am
   POMASS =  12.01
  Ionic Valenz
   ZVAL   =   4.00
  Atomic Wigner-Seitz radii
   RWIGS  =  -1.00
  virtual crystal weights 
   VCA    =   1.00
   NELECT =       8.0000    total number of electrons
   NUPDOWN=      -1.0000    fix difference up-down

 DOS related values:
   EMIN   =  10.00;   EMAX   =-10.00  energy-range for DOS
   EFERMI =   0.00
   ISMEAR =     1;   SIGMA  =   0.20  broadening in eV -4-tet -1-fermi 0-gaus

 Electronic relaxation 2 (details)
   IALGO  =     38    algorithm
   LDIAG  =      T    sub-space diagonalisation (order eigenvalues)
   LSUBROT=      F    optimize rotation matrix (better conditioning)
   TURBO    =      0    0=normal 1=particle mesh
   IRESTART =      0    0=no restart 2=restart with 2 vectors
   NREBOOT  =      0    no. of reboots
   NMIN     =      0    reboot dimension
   EREF     =   0.00    reference energy to select bands
   IMIX   =      4    mixing-type and parameters
     AMIX     =   0.40;   BMIX     =  1.00
     AMIX_MAG =   1.60;   BMIX_MAG =  1.00
     AMIN     =   0.10
     WC   =   100.;   INIMIX=   1;  MIXPRE=   1;  MAXMIX= -45

 Intra band minimization:
   WEIMIN = 0.0000     energy-eigenvalue tresh-hold
   EBREAK =  0.18E-05  absolut break condition
   DEPER  =   0.30     relativ break condition  

   TIME   =   0.40     timestep for ELM

  volume/ion in A,a.u.               =      32.01       216.01
  Fermi-wavevector in a.u.,A,eV,Ry     =   0.818475  1.546694  9.114571  0.669902
  Thomas-Fermi vector in A             =   1.929109
 
 Write flags
   LWAVE        =      F    write WAVECAR
   LDOWNSAMPLE  =      F    k-point downsampling of WAVECAR
   LCHARG       =      F    write CHGCAR
   LVTOT        =      F    write LOCPOT, total local potential
   LVHAR        =      F    write LOCPOT, Hartree potential only
   LELF         =      F    write electronic localiz. function (ELF)
   LORBIT       =      0    0 simple, 1 ext, 2 COOP (PROOUT), +10 PAW based schemes


 Dipole corrections
   LMONO  =      F    monopole corrections only (constant potential shift)
   LDIPOL =      F    correct potential (dipole corrections)
   IDIPOL =      0    1-x, 2-y, 3-z, 4-all directions 
   EPSILON=  1.0000000 bulk dielectric constant

 Exchange correlation treatment:
   GGA     =    --    GGA type
   LEXCH   =     8    internal setting for exchange type
   VOSKOWN=      0    Vosko Wilk Nusair interpolation
   LHFCALC =     F    Hartree Fock is set to
   LHFONE  =     F    Hartree Fock one center treatment
   AEXX    =    0.0000 exact exchange contribution

 Linear response parameters
   LEPSILON=     T    determine dielectric tensor
   LRPA    =     F    only Hartree local field effects (RPA)
   LNABLA  =     F    use nabla operator in PAW spheres
   LVEL    =     F    velocity operator in full k-point grid
   LINTERFAST=   F  fast interpolation
   KINTER  =     0    interpolate to denser k-point grid
   CSHIFT  =0.1000    complex shift for real part using Kramers Kronig
   OMEGAMAX=  -1.0    maximum frequency
   DEG_THRESHOLD= 0.2000000E-02 threshold for treating states as degnerate
   RTIME   =   -0.100 relaxation time in fs
  (WPLASMAI=    0.000 imaginary part of plasma frequency in eV, 0.658/RTIME)
   DFIELD  = 0.0000000 0.0000000 0.0000000 field for delta impulse in time
 
 Orbital magnetization related:
   ORBITALMAG=     F  switch on orbital magnetization
   LCHIMAG   =     F  perturbation theory with respect to B field
   DQ        =  0.001000  dq finite difference perturbation B field
   LLRAUG    =     F  two centre corrections for induced B field



--------------------------------------------------------------------------------------------------------


 Static calculation
 charge density and potential will be updated during run
 non-spin polarized calculation
 Variant of blocked Davidson
 Davidson routine will perform the subspace rotation
 perform sub-space diagonalisation
    after iterative eigenvector-optimisation
 modified Broyden-mixing scheme, WC =      100.0
 initial mixing is a Kerker type mixing with AMIX =  0.4000 and BMIX =      1.0000
 Hartree-type preconditioning will be used
 using additional bands           10
 real space projection scheme for non local part
 calculate Harris-corrections to forces 
   (improved forces if not selfconsistent)
 use gradient corrections 
 use of overlap-Matrix (Vanderbilt PP)
 Methfessel and Paxton  Order N= 1 SIGMA  =   0.20


--------------------------------------------------------------------------------------------------------


  energy-cutoff  :      400.00
  volume of cell :       64.02
      direct lattice vectors                 reciprocal lattice vectors
     2.481948769  0.000000000  0.000000000     0.402909203  0.232619737 -0.000000000
    -1.240974385  2.149430685  0.000000000     0.000000000  0.465239473 -0.000000000
     0.000000000  0.000000000 12.000000000     0.000000000  0.000000000  0.083333333

  length of vectors
     2.481948769  2.481948769 12.000000000     0.465239473  0.465239473  0.083333333


 
 k-points in units of 2pi/SCALE and weight: K-Points                                
   0.00000000  0.00000000  0.00000000       0.111
   0.13430307  0.07753991 -0.00000000       0.222
   0.00000000  0.15507982 -0.00000000       0.222
   0.13430307  0.23261974 -0.00000000       0.222
  -0.13430307  0.07753991  0.00000000       0.222
 
 k-points in reciprocal lattice and weights: K-Points                                
   0.00000000  0.00000000  0.00000000       0.111
   0.33333333  0.00000000  0.00000000       0.222
   0.00000000  0.33333333  0.00000000       0.222
   0.33333333  0.33333333  0.00000000       0.222
  -0.33333333  0.33333333  0.00000000       0.222
 
 position of ions in fractional coordinates (direct lattice) 
   0.99671662  0.99823427  0.14166997
   0.33661977  0.66844070  0.14166977
 
 position of ions in cartesian coordinates  (Angst):
   1.23501642  2.14563538  1.70003963
   0.00595524  1.43676695  1.70003728
 


--------------------------------------------------------------------------------------------------------


 k-point  1 :   0.0000 0.0000 0.0000  plane waves:    1125
 k-point  2 :   0.3333 0.0000 0.0000  plane waves:    1167
 k-point  3 :   0.0000 0.3333 0.0000  plane waves:    1167
 k-point  4 :   0.3333 0.3333 0.0000  plane waves:    1146
 k-point  5 :  -0.3333 0.3333 0.0000  plane waves:    1167

 maximum and minimum number of plane-waves per node :      1167     1125

 maximum number of plane-waves:      1167
 maximum index in each direction: 
   IXMAX=    4   IYMAX=    4   IZMAX=   19
   IXMIN=   -4   IYMIN=   -4   IZMIN=  -19


 serial   3D FFT for wavefunctions
 parallel 3D FFT for charge:
    minimum data exchange during FFTs selected (reduces bandwidth)


 total amount of memory used by VASP MPI-rank0    32837. kBytes
=======================================================================

   base      :      30000. kBytes
   nonlr-proj:        208. kBytes
   fftplans  :       1526. kBytes
   grid      :        907. kBytes
   one-center:          6. kBytes
   wavefun   :        190. kBytes
 
     INWAV:  cpu time    0.0000: real time    0.0000
 Broyden mixing: mesh for mixing (old mesh)
   NGX =  9   NGY =  9   NGZ = 39
  (NGX  = 24   NGY  = 24   NGZ  =120)
  gives a total of   3159 points

 initial charge density was supplied:
 charge density of overlapping atoms calculated
 number of electron       8.0000000 magnetization 
 keeping initial charge density in first step


--------------------------------------------------------------------------------------------------------


 Maximum index for non-local projection operator         1190
 Maximum index for augmentation-charges         1863 (set IRDMAX)


--------------------------------------------------------------------------------------------------------


 First call to EWALD:  gamma=   0.443
 Maximum number of real-space cells 5x 5x 1
 Maximum number of reciprocal cells 2x 2x 7

    FEWALD:  cpu time    0.0030: real time    0.0031


----------------------------------------- Iteration    1(   1)  ---------------------------------------


    POTLOK:  cpu time    0.0060: real time    0.0060
    SETDIJ:  cpu time    0.0030: real time    0.0032
     EDDAV:  cpu time    0.2280: real time    0.3885
       DOS:  cpu time    0.0020: real time    0.0019
    --------------------------------------------
      LOOP:  cpu time    0.2400: real time    0.4025

 eigenvalue-minimisations  :   140
 total energy-change (2. order) : 0.1328591E+02  (-0.3579052E+03)
 number of electron       8.0000000 magnetization 
 augmentation part        8.0000000 magnetization 

 Free energy of the ion-electron system (eV)
  ---------------------------------------------------
  alpha Z        PSCENC =         5.09113229
  Ewald energy   TEWEN  =       551.15229652
  -Hartree energ DENC   =      -777.06229371
  -exchange      EXHF   =         0.00000000
  -V(xc)+E(xc)   XCENC  =        27.46742647
  PAW double counting   =        75.66288619      -77.96384553
  entropy T*S    EENTRO =        -0.01082375
  eigenvalues    EBANDS =       -85.30531751
  atomic energy  EATOM  =       294.25444774
  Solvation  Ediel_sol  =         0.00000000
  ---------------------------------------------------
  free energy    TOTEN  =        13.28590872 eV

  energy without entropy =       13.29673247  energy(sigma->0) =       13.28951663


--------------------------------------------------------------------------------------------------------




 average (electrostatic) potential at core
  the test charge radii are     0.6991
  (the norm of the test charge is              1.0000)
       1 -62.8987       2 -62.8987
 
 
 
 E-fermi :   2.5926     XC(G=0):  -3.9365     alpha+bet : -3.1363


 k-point     1 :       0.0000    0.0000    0.0000
  band No.  band energies     occupation 
      1     -24.2919      2.00000
      2     -11.2416      2.00000
      3      -4.0432      2.00000
      4       1.3099      2.00000
      5       2.6013      0.92623
      6       2.9885     -0.01707
      7       3.8781     -0.00000
      8       6.9303     -0.00000
      9       8.2495      0.00000
     10      11.2658      0.00000
     11      14.0369      0.00000
     12      15.8126      0.00000
     13      20.7386      0.00000
     14      21.5693      0.00000

 k-point     2 :       0.3333    0.0000    0.0000
  band No.  band energies     occupation 
      1     -21.8500      2.00000
      2     -11.6197      2.00000
      3      -7.3779      2.00000
      4      -5.4487      2.00000
      5       5.1530     -0.00000
      6       6.6508     -0.00000
      7       7.5096     -0.00000
      8      10.0340      0.00000
      9      11.7368      0.00000
     10      13.7621      0.00000
     11      16.8851      0.00000
     12      17.9011      0.00000
     13      20.7641      0.00000
     14      25.0451      0.00000

 k-point     3 :       0.0000    0.3333    0.0000
  band No.  band energies     occupation 
      1     -21.8311      2.00000
      2     -10.3836      2.00000
      3      -7.6579      2.00000
      4      -3.3560      2.00000
      5       5.2209     -0.00000
      6       6.4693     -0.00000
      7       7.4891     -0.00000
      8       9.9723      0.00000
      9      11.7738      0.00000
     10      13.3862      0.00000
     11      16.3588      0.00000
     12      18.4044      0.00000
     13      18.9542      0.00000
     14      20.2553      0.00000

 k-point     4 :       0.3333    0.3333    0.0000
  band No.  band energies     occupation 
      1     -16.7548      2.00000
      2     -14.8385      2.00000
      3     -13.0199      2.00000
      4       0.1496      2.00000
      5       2.9548     -0.02804
      6      12.2750      0.00000
      7      13.1520      0.00000
      8      13.5674      0.00000
      9      14.2691      0.00000
     10      14.8697      0.00000
     11      16.2062      0.00000
     12      17.6237      0.00000
     13      19.4740      0.00000
     14      21.2924      0.00000

 k-point     5 :      -0.3333    0.3333    0.0000
  band No.  band energies     occupation 
      1     -21.6760      2.00000
      2     -12.4837      2.00000
      3      -7.1860      2.00000
      4       2.5198      1.57346
      5       5.2815     -0.00000
      6       7.1768     -0.00000
      7       7.8926     -0.00000
      8       9.5062      0.00000
      9      12.1054      0.00000
     10      15.4125      0.00000
     11      17.8250      0.00000
     12      19.4922      0.00000
     13      22.0034      0.00000
     14      22.1577      0.00000


--------------------------------------------------------------------------------------------------------


 soft charge-density along one line, spin component           1
         0         1         2         3         4         5         6         7         8         9
 total charge-density along one line
 
 pseudopotential strength for first ion, spin component:           1
 10.479   0.027  -0.000  -0.000  -0.001   0.000   0.000   0.001
  0.027  -0.001   0.000   0.000   0.000   0.000   0.000   0.000
 -0.000   0.000  -4.631  -0.000  -0.001  -0.003  -0.000  -0.000
 -0.000   0.000  -0.000  -4.598  -0.000  -0.000   0.002  -0.000
 -0.001   0.000  -0.001  -0.000  -4.632  -0.000  -0.000  -0.003
  0.000   0.000  -0.003  -0.000  -0.000  -0.776  -0.000  -0.000
  0.000   0.000  -0.000   0.002  -0.000  -0.000  -0.775  -0.000
  0.001   0.000  -0.000  -0.000  -0.003  -0.000  -0.000  -0.776
 total augmentation occupancy for first ion, spin component:           1
  2.000   0.000   0.000   0.000   0.000   0.000   0.000   0.000
  0.000   0.000   0.000   0.000   0.000   0.000   0.000   0.000
  0.000   0.000   0.667   0.000   0.000   0.000   0.000   0.000
  0.000   0.000   0.000   0.667   0.000   0.000   0.000   0.000
  0.000   0.000   0.000   0.000   0.667   0.000   0.000   0.000
  0.000   0.000   0.000   0.000   0.000   0.000   0.000   0.000
  0.000   0.000   0.000   0.000   0.000   0.000   0.000   0.000
  0.000   0.000   0.000   0.000   0.000   0.000   0.000   0.000


----------------------------------------- Iteration    1(   2)  ---------------------------------------


     EDDAV:  cpu time    0.1250: real time    0.2801
       DOS:  cpu time    0.0010: real time    0.0012
    --------------------------------------------
      LOOP:  cpu time    0.1270: real time    0.2830

 eigenvalue-minimisations  :   224
 total energy-change (2. order) :-0.3205512E+02  (-0.3102704E+02)
 number of electron       8.0000000 magnetization 
 augmentation part        8.0000000 magnetization 

 Free energy of the ion-electron system (eV)
  ---------------------------------------------------
  alpha Z        PSCENC =         5.09113229
  Ewald energy   TEWEN  =       551.15229652
  -Hartree energ DENC   =      -777.06229371
  -exchange      EXHF   =         0.00000000
  -V(xc)+E(xc)   XCENC  =        27.46742647
  PAW double counting   =        75.66288619      -77.96384553
  entropy T*S    EENTRO =        -0.01555254
  eigenvalues    EBANDS =      -117.35570587
  atomic energy  EATOM  =       294.25444774
  Solvation  Ediel_sol  =         0.00000000
  ---------------------------------------------------
  free energy    TOTEN  =       -18.76920843 eV

  energy without entropy =      -18.75365589  energy(sigma->0) =      -18.76402425


--------------------------------------------------------------------------------------------------------




 average (electrostatic) potential at core
  the test charge radii are     0.6991
  (the norm of the test charge is              1.0000)
       1 -62.8987       2 -62.8987
 
 
 
 E-fermi :  -4.9243     XC(G=0):  -3.9365     alpha+bet : -3.1363


 k-point     1 :       0.0000    0.0000    0.0000
  band No.  band energies     occupation 
      1     -25.0228      2.00000
      2     -12.1693      2.00000
      3      -9.6377      2.00000
      4      -9.0518      2.00000
      5       1.2680      0.00000
      6       2.2536      0.00000
      7       2.5980      0.00000
      8       2.7981      0.00000
      9       3.6389      0.00000
     10       5.9183      0.00000
     11       6.4820      0.00000
     12       6.5231      0.00000
     13       7.7100      0.00000
     14      12.5966      0.00000

 k-point     2 :       0.3333    0.0000    0.0000
  band No.  band energies     occupation 
      1     -22.5601      2.00000
      2     -15.6826      2.00000
      3     -11.8616      2.00000
      4      -9.2989      2.00000
      5      -0.2678     -0.00000
      6       2.1088      0.00000
      7       4.7272      0.00000
      8       6.0485      0.00000
      9       7.1862      0.00000
     10       9.7302      0.00000
     11       9.8564      0.00000
     12      10.6575      0.00000
     13      11.1429      0.00000
     14      13.9024      0.00000

 k-point     3 :       0.0000    0.3333    0.0000
  band No.  band energies     occupation 
      1     -22.5562      2.00000
      2     -15.5227      2.00000
      3     -12.0552      2.00000
      4      -9.3457      2.00000
      5      -0.1049     -0.00000
      6       2.0160      0.00000
      7       4.7299      0.00000
      8       6.0427      0.00000
      9       7.1874      0.00000
     10       9.7209      0.00000
     11      10.0153      0.00000
     12      10.5318      0.00000
     13      11.1909      0.00000
     14      13.7577      0.00000

 k-point     4 :       0.3333    0.3333    0.0000
  band No.  band energies     occupation 
      1     -18.5640      2.00000
      2     -18.3346      2.00000
      3     -16.2912      2.00000
      4      -4.9997      1.59110
      5      -4.8488      0.40890
      6       7.3190      0.00000
      7       8.4562      0.00000
      8       9.2690      0.00000
      9      10.3876      0.00000
     10      12.6237      0.00000
     11      12.9713      0.00000
     12      13.3589      0.00000
     13      13.4574      0.00000
     14      14.3283      0.00000

 k-point     5 :      -0.3333    0.3333    0.0000
  band No.  band energies     occupation 
      1     -22.5421      2.00000
      2     -15.4939      2.00000
      3     -11.7413      2.00000
      4      -9.2906      2.00000
      5       0.2545     -0.00000
      6       2.6801      0.00000
      7       4.7492      0.00000
      8       6.1277      0.00000
      9       7.2197      0.00000
     10       9.8556      0.00000
     11      11.2706      0.00000
     12      14.0974      0.00000
     13      15.1074      0.00000
     14      16.7868      0.00000


--------------------------------------------------------------------------------------------------------


 soft charge-density along one line, spin component           1
         0         1         2         3         4         5         6         7         8         9
 total charge-density along one line
 
 pseudopotential strength for first ion, spin component:           1
 10.479   0.027  -0.000  -0.000  -0.001   0.000   0.000   0.001
  0.027  -0.001   0.000   0.000   0.000   0.000   0.000   0.000
 -0.000   0.000  -4.631  -0.000  -0.001  -0.003  -0.000  -0.000
 -0.000   0.000  -0.000  -4.598  -0.000  -0.000   0.002  -0.000
 -0.001   0.000  -0.001  -0.000  -4.632  -0.000  -0.000  -0.003
  0.000   0.000  -0.003  -0.000  -0.000  -0.776  -0.000  -0.000
  0.000   0.000  -0.000   0.002  -0.000  -0.000  -0.775  -0.000
  0.001   0.000  -0.000  -0.000  -0.003  -0.000  -0.000  -0.776
 total augmentation occupancy for first ion, spin component:           1
  2.000   0.000   0.000   0.000   0.000   0.000   0.000   0.000
  0.000   0.000   0.000   0.000   0.000   0.000   0.000   0.000
  0.000   0.000   0.667   0.000   0.000   0.000   0.000   0.000
  0.000   0.000   0.000   0.667   0.000   0.000   0.000   0.000
  0.000   0.000   0.000   0.000   0.667   0.000   0.000   0.000
  0.000   0.000   0.000   0.000   0.000   0.000   0.000   0.000
  0.000   0.000   0.000   0.000   0.000   0.000   0.000   0.000
  0.000   0.000   0.000   0.000   0.000   0.000   0.000   0.000


----------------------------------------- Iteration    1(   3)  ---------------------------------------


     EDDAV:  cpu time    0.3100: real time    0.4647
       DOS:  cpu time    0.0010: real time    0.0011
    --------------------------------------------
      LOOP:  cpu time    0.3120: real time    0.4691

 eigenvalue-minimisations  :   168
 total energy-change (2. order) :-0.3914822E+00  (-0.3902424E+00)
 number of electron       8.0000000 magnetization 
 augmentation part        8.0000000 magnetization 

 Free energy of the ion-electron system (eV)
  ---------------------------------------------------
  alpha Z        PSCENC =         5.09113229
  Ewald energy   TEWEN  =       551.15229652
  -Hartree energ DENC   =      -777.06229371
  -exchange      EXHF   =         0.00000000
  -V(xc)+E(xc)   XCENC  =        27.46742647
  PAW double counting   =        75.66288619      -77.96384553
  entropy T*S    EENTRO =        -0.00841681
  eigenvalues    EBANDS =      -117.75432378
  atomic energy  EATOM  =       294.25444774
  Solvation  Ediel_sol  =         0.00000000
  ---------------------------------------------------
  free energy    TOTEN  =       -19.16069061 eV

  energy without entropy =      -19.15227380  energy(sigma->0) =      -19.15788501


--------------------------------------------------------------------------------------------------------




 average (electrostatic) potential at core
  the test charge radii are     0.6991
  (the norm of the test charge is              1.0000)
       1 -62.8987       2 -62.8987
 
 
 
 E-fermi :  -4.9995     XC(G=0):  -3.9365     alpha+bet : -3.1363


 k-point     1 :       0.0000    0.0000    0.0000
  band No.  band energies     occupation 
      1     -25.0256      2.00000
      2     -12.1749      2.00000
      3      -9.7070      2.00000
      4      -9.2319      2.00000
      5       1.2661      0.00000
      6       2.0104      0.00000
      7       2.5877      0.00000
      8       2.5921      0.00000
      9       3.6370      0.00000
     10       5.5879      0.00000
     11       6.3339      0.00000
     12       6.4849      0.00000
     13       7.7016      0.00000
     14      12.5209      0.00000

 k-point     2 :       0.3333    0.0000    0.0000
  band No.  band energies     occupation 
      1     -22.5613      2.00000
      2     -15.6975      2.00000
      3     -11.8856      2.00000
      4      -9.3066      2.00000
      5      -0.3493     -0.00000
      6       2.0284      0.00000
      7       4.7228      0.00000
      8       6.0337      0.00000
      9       7.1838      0.00000
     10       9.5797      0.00000
     11       9.7136      0.00000
     12      10.4760      0.00000
     13      11.1265      0.00000
     14      13.7977      0.00000

 k-point     3 :       0.0000    0.3333    0.0000
  band No.  band energies     occupation 
      1     -22.5572      2.00000
      2     -15.5478      2.00000
      3     -12.0819      2.00000
      4      -9.3533      2.00000
      5      -0.2088     -0.00000
      6       1.9054      0.00000
      7       4.7250      0.00000
      8       6.0312      0.00000
      9       7.1840      0.00000
     10       9.6973      0.00000
     11       9.8685      0.00000
     12      10.3729      0.00000
     13      11.1553      0.00000
     14      13.7008      0.00000

 k-point     4 :       0.3333    0.3333    0.0000
  band No.  band energies     occupation 
      1     -18.5788      2.00000
      2     -18.3722      2.00000
      3     -16.3194      2.00000
      4      -5.1050      1.76971
      5      -4.8940      0.23029
      6       7.2142      0.00000
      7       7.8798      0.00000
      8       8.0914      0.00000
      9       9.9179      0.00000
     10      12.4979      0.00000
     11      12.5942      0.00000
     12      13.1654      0.00000
     13      13.2090      0.00000
     14      13.8202      0.00000

 k-point     5 :      -0.3333    0.3333    0.0000
  band No.  band energies     occupation 
      1     -22.5574      2.00000
      2     -15.5566      2.00000
      3     -12.0702      2.00000
      4      -9.3510      2.00000
      5      -0.2163     -0.00000
      6       1.9085      0.00000
      7       4.7249      0.00000
      8       6.0314      0.00000
      9       7.1841      0.00000
     10       9.6983      0.00000
     11       9.9498      0.00000
     12      10.4004      0.00000
     13      11.1554      0.00000
     14      13.7266      0.00000


--------------------------------------------------------------------------------------------------------


 soft charge-density along one line, spin component           1
         0         1         2         3         4         5         6         7         8         9
 total charge-density along one line
 
 pseudopotential strength for first ion, spin component:           1
 10.479   0.027  -0.000  -0.000  -0.001   0.000   0.000   0.001
  0.027  -0.001   0.000   0.000   0.000   0.000   0.000   0.000
 -0.000   0.000  -4.631  -0.000  -0.001  -0.003  -0.000  -0.000
 -0.000   0.000  -0.000  -4.598  -0.000  -0.000   0.002  -0.000
 -0.001   0.000  -0.001  -0.000  -4.632  -0.000  -0.000  -0.003
  0.000   0.000  -0.003  -0.000  -0.000  -0.776  -0.000  -0.000
  0.000   0.000  -0.000   0.002  -0.000  -0.000  -0.775  -0.000
  0.001   0.000  -0.000  -0.000  -0.003  -0.000  -0.000  -0.776
 total augmentation occupancy for first ion, spin component:           1
  2.000   0.000   0.000   0.000   0.000   0.000   0.000   0.000
  0.000   0.000   0.000   0.000   0.000   0.000   0.000   0.000
  0.000   0.000   0.667   0.000   0.000   0.000   0.000   0.000
  0.000   0.000   0.000   0.667   0.000   0.000   0.000   0.000
  0.000   0.000   0.000   0.000   0.667   0.000   0.000   0.000
  0.000   0.000   0.000   0.000   0.000   0.000   0.000   0.000
  0.000   0.000   0.000   0.000   0.000   0.000   0.000   0.000
  0.000   0.000   0.000   0.000   0.000   0.000   0.000   0.000


----------------------------------------- Iteration    1(   4)  ---------------------------------------


     EDDAV:  cpu time    0.1480: real time    0.2995
       DOS:  cpu time    0.0020: real time    0.0019
    --------------------------------------------
      LOOP:  cpu time    0.1500: real time    0.3034

 eigenvalue-minimisations  :   182
 total energy-change (2. order) :-0.1025971E-02  (-0.1025889E-02)
 number of electron       8.0000000 magnetization 
 augmentation part        8.0000000 magnetization 

 Free energy of the ion-electron system (eV)
  ---------------------------------------------------
  alpha Z        PSCENC =         5.09113229
  Ewald energy   TEWEN  =       551.15229652
  -Hartree energ DENC   =      -777.06229371
  -exchange      EXHF   =         0.00000000
  -V(xc)+E(xc)   XCENC  =        27.46742647
  PAW double counting   =        75.66288619      -77.96384553
  entropy T*S    EENTRO =        -0.00835163
  eigenvalues    EBANDS =      -117.75541493
  atomic energy  EATOM  =       294.25444774
  Solvation  Ediel_sol  =         0.00000000
  ---------------------------------------------------
  free energy    TOTEN  =       -19.16171658 eV

  energy without entropy =      -19.15336495  energy(sigma->0) =      -19.15893271


--------------------------------------------------------------------------------------------------------




 average (electrostatic) potential at core
  the test charge radii are     0.6991
  (the norm of the test charge is              1.0000)
       1 -62.8987       2 -62.8987
 
 
 
 E-fermi :  -5.0001     XC(G=0):  -3.9365     alpha+bet : -3.1363


 k-point     1 :       0.0000    0.0000    0.0000
  band No.  band energies     occupation 
      1     -25.0256      2.00000
      2     -12.1749      2.00000
      3      -9.7072      2.00000
      4      -9.2323      2.00000
      5       1.2661      0.00000
      6       2.0089      0.00000
      7       2.5877      0.00000
      8       2.5902      0.00000
      9       3.6370      0.00000
     10       5.5843      0.00000
     11       6.3332      0.00000
     12       6.4848      0.00000
     13       7.7016      0.00000
     14      12.5195      0.00000

 k-point     2 :       0.3333    0.0000    0.0000
  band No.  band energies     occupation 
      1     -22.5613      2.00000
      2     -15.6975      2.00000
      3     -11.8857      2.00000
      4      -9.3067      2.00000
      5      -0.3496     -0.00000
      6       2.0280      0.00000
      7       4.7228      0.00000
      8       6.0336      0.00000
      9       7.1838      0.00000
     10       9.5728      0.00000
     11       9.7134      0.00000
     12      10.4722      0.00000
     13      11.1264      0.00000
     14      13.7945      0.00000

 k-point     3 :       0.0000    0.3333    0.0000
  band No.  band energies     occupation 
      1     -22.5572      2.00000
      2     -15.5479      2.00000
      3     -12.0820      2.00000
      4      -9.3533      2.00000
      5      -0.2093     -0.00000
      6       1.9041      0.00000
      7       4.7250      0.00000
      8       6.0311      0.00000
      9       7.1839      0.00000
     10       9.6969      0.00000
     11       9.8626      0.00000
     12      10.3691      0.00000
     13      11.1545      0.00000
     14      13.6974      0.00000

 k-point     4 :       0.3333    0.3333    0.0000
  band No.  band energies     occupation 
      1     -18.5789      2.00000
      2     -18.3725      2.00000
      3     -16.3196      2.00000
      4      -5.1059      1.77110
      5      -4.8943      0.22890
      6       7.2127      0.00000
      7       7.7641      0.00000
      8       8.0765      0.00000
      9       9.8820      0.00000
     10      12.4454      0.00000
     11      12.4995      0.00000
     12      13.1338      0.00000
     13      13.1412      0.00000
     14      13.5148      0.00000

 k-point     5 :      -0.3333    0.3333    0.0000
  band No.  band energies     occupation 
      1     -22.5575      2.00000
      2     -15.5566      2.00000
      3     -12.0703      2.00000
      4      -9.3510      2.00000
      5      -0.2165     -0.00000
      6       1.9081      0.00000
      7       4.7249      0.00000
      8       6.0312      0.00000
      9       7.1839      0.00000
     10       9.6977      0.00000
     11       9.8523      0.00000
     12      10.3740      0.00000
     13      11.1530      0.00000
     14      13.7037      0.00000


--------------------------------------------------------------------------------------------------------


 soft charge-density along one line, spin component           1
         0         1         2         3         4         5         6         7         8         9
 total charge-density along one line
 
 pseudopotential strength for first ion, spin component:           1
 10.479   0.027  -0.000  -0.000  -0.001   0.000   0.000   0.001
  0.027  -0.001   0.000   0.000   0.000   0.000   0.000   0.000
 -0.000   0.000  -4.631  -0.000  -0.001  -0.003  -0.000  -0.000
 -0.000   0.000  -0.000  -4.598  -0.000  -0.000   0.002  -0.000
 -0.001   0.000  -0.001  -0.000  -4.632  -0.000  -0.000  -0.003
  0.000   0.000  -0.003  -0.000  -0.000  -0.776  -0.000  -0.000
  0.000   0.000  -0.000   0.002  -0.000  -0.000  -0.775  -0.000
  0.001   0.000  -0.000  -0.000  -0.003  -0.000  -0.000  -0.776
 total augmentation occupancy for first ion, spin component:           1
  2.000   0.000   0.000   0.000   0.000   0.000   0.000   0.000
  0.000   0.000   0.000   0.000   0.000   0.000   0.000   0.000
  0.000   0.000   0.667   0.000   0.000   0.000   0.000   0.000
  0.000   0.000   0.000   0.667   0.000   0.000   0.000   0.000
  0.000   0.000   0.000   0.000   0.667   0.000   0.000   0.000
  0.000   0.000   0.000   0.000   0.000   0.000   0.000   0.000
  0.000   0.000   0.000   0.000   0.000   0.000   0.000   0.000
  0.000   0.000   0.000   0.000   0.000   0.000   0.000   0.000


----------------------------------------- Iteration    1(   5)  ---------------------------------------


     EDDAV:  cpu time    0.1870: real time    0.3364
       DOS:  cpu time    0.0010: real time    0.0006
    CHARGE:  cpu time    0.0060: real time    0.0151
    MIXING:  cpu time    0.0000: real time    0.0005
    --------------------------------------------
      LOOP:  cpu time    0.1950: real time    0.3546

 eigenvalue-minimisations  :   140
 total energy-change (2. order) :-0.1656046E-05  (-0.1655653E-05)
 number of electron       8.0000000 magnetization 
 augmentation part        0.2144458 magnetization 

 Broyden mixing:
  rms(total) = 0.55036E+00    rms(broyden)= 0.55029E+00
  rms(prec ) = 0.67730E+00
  weight for this iteration     100.00

 Free energy of the ion-electron system (eV)
  ---------------------------------------------------
  alpha Z        PSCENC =         5.09113229
  Ewald energy   TEWEN  =       551.15229652
  -Hartree energ DENC   =      -777.06229371
  -exchange      EXHF   =         0.00000000
  -V(xc)+E(xc)   XCENC  =        27.46742647
  PAW double counting   =        75.66288619      -77.96384553
  entropy T*S    EENTRO =        -0.00835163
  eigenvalues    EBANDS =      -117.75541659
  atomic energy  EATOM  =       294.25444774
  Solvation  Ediel_sol  =         0.00000000
  ---------------------------------------------------
  free energy    TOTEN  =       -19.16171824 eV

  energy without entropy =      -19.15336661  energy(sigma->0) =      -19.15893436


--------------------------------------------------------------------------------------------------------




 average (electrostatic) potential at core
  the test charge radii are     0.6991
  (the norm of the test charge is              1.0000)
       1 -62.8987       2 -62.8987
 
 
 
 E-fermi :  -5.0001     XC(G=0):  -3.9365     alpha+bet : -3.1363


 k-point     1 :       0.0000    0.0000    0.0000
  band No.  band energies     occupation 
      1     -25.0256      2.00000
      2     -12.1749      2.00000
      3      -9.7072      2.00000
      4      -9.2323      2.00000
      5       1.2661      0.00000
      6       2.0089      0.00000
      7       2.5877      0.00000
      8       2.5902      0.00000
      9       3.6370      0.00000
     10       5.5842      0.00000
     11       6.3332      0.00000
     12       6.4848      0.00000
     13       7.7016      0.00000
     14      12.5194      0.00000

 k-point     2 :       0.3333    0.0000    0.0000
  band No.  band energies     occupation 
      1     -22.5613      2.00000
      2     -15.6975      2.00000
      3     -11.8857      2.00000
      4      -9.3067      2.00000
      5      -0.3496     -0.00000
      6       2.0280      0.00000
      7       4.7228      0.00000
      8       6.0336      0.00000
      9       7.1838      0.00000
     10       9.5723      0.00000
     11       9.7134      0.00000
     12      10.4718      0.00000
     13      11.1264      0.00000
     14      13.7942      0.00000

 k-point     3 :       0.0000    0.3333    0.0000
  band No.  band energies     occupation 
      1     -22.5572      2.00000
      2     -15.5479      2.00000
      3     -12.0820      2.00000
      4      -9.3533      2.00000
      5      -0.2093     -0.00000
      6       1.9041      0.00000
      7       4.7250      0.00000
      8       6.0311      0.00000
      9       7.1839      0.00000
     10       9.6969      0.00000
     11       9.8626      0.00000
     12      10.3690      0.00000
     13      11.1545      0.00000
     14      13.6974      0.00000

 k-point     4 :       0.3333    0.3333    0.0000
  band No.  band energies     occupation 
      1     -18.5789      2.00000
      2     -18.3725      2.00000
      3     -16.3196      2.00000
      4      -5.1059      1.77109
      5      -4.8943      0.22891
      6       7.2127      0.00000
      7       7.7641      0.00000
      8       8.0765      0.00000
      9       9.8819      0.00000
     10      12.4449      0.00000
     11      12.4995      0.00000
     12      13.1334      0.00000
     13      13.1408      0.00000
     14      13.5115      0.00000

 k-point     5 :      -0.3333    0.3333    0.0000
  band No.  band energies     occupation 
      1     -22.5575      2.00000
      2     -15.5566      2.00000
      3     -12.0703      2.00000
      4      -9.3510      2.00000
      5      -0.2165     -0.00000
      6       1.9081      0.00000
      7       4.7249      0.00000
      8       6.0312      0.00000
      9       7.1839      0.00000
     10       9.6977      0.00000
     11       9.8506      0.00000
     12      10.3737      0.00000
     13      11.1530      0.00000
     14      13.7025      0.00000


--------------------------------------------------------------------------------------------------------


 soft charge-density along one line, spin component           1
         0         1         2         3         4         5         6         7         8         9
 total charge-density along one line
 
 pseudopotential strength for first ion, spin component:           1
 10.479   0.027  -0.000  -0.000  -0.001   0.000   0.000   0.001
  0.027  -0.001   0.000   0.000   0.000   0.000   0.000   0.000
 -0.000   0.000  -4.631  -0.000  -0.001  -0.003  -0.000  -0.000
 -0.000   0.000  -0.000  -4.598  -0.000  -0.000   0.002  -0.000
 -0.001   0.000  -0.001  -0.000  -4.632  -0.000  -0.000  -0.003
  0.000   0.000  -0.003  -0.000  -0.000  -0.776  -0.000  -0.000
  0.000   0.000  -0.000   0.002  -0.000  -0.000  -0.775  -0.000
  0.001   0.000  -0.000  -0.000  -0.003  -0.000  -0.000  -0.776
 total augmentation occupancy for first ion, spin component:           1
  1.494  -0.938  -0.006   0.000  -0.009  -0.002  -0.000  -0.003
 -0.938   0.739   0.006  -0.000   0.009   0.002   0.000   0.003
 -0.006   0.006   1.285  -0.000   0.007   0.205  -0.000   0.003
  0.000  -0.000  -0.000   1.055  -0.000   0.000   0.077   0.000
 -0.009   0.009   0.007  -0.000   1.294   0.003  -0.000   0.208
 -0.002   0.002   0.205   0.000   0.003   0.038  -0.000   0.001
 -0.000   0.000  -0.000   0.077  -0.000  -0.000   0.008  -0.000
 -0.003   0.003   0.003   0.000   0.208   0.001  -0.000   0.039


----------------------------------------- Iteration    1(   6)  ---------------------------------------


    POTLOK:  cpu time    0.0050: real time    0.0049
    SETDIJ:  cpu time    0.0030: real time    0.0028
     EDDAV:  cpu time    0.2890: real time    0.4379
       DOS:  cpu time    0.0010: real time    0.0008
    CHARGE:  cpu time    0.0130: real time    0.0140
    MIXING:  cpu time    0.0010: real time    0.0005
    --------------------------------------------
      LOOP:  cpu time    0.3130: real time    0.4630

 eigenvalue-minimisations  :   182
 total energy-change (2. order) : 0.8897987E+00  (-0.8535446E-01)
 number of electron       8.0000000 magnetization 
 augmentation part        0.2054089 magnetization 

 Broyden mixing:
  rms(total) = 0.29172E+00    rms(broyden)= 0.29170E+00
  rms(prec ) = 0.36180E+00
  weight for this iteration     100.00

 eigenvalues of (default mixing * dielectric matrix)
  average eigenvalue GAMMA=   2.0584
  2.0584

 Free energy of the ion-electron system (eV)
  ---------------------------------------------------
  alpha Z        PSCENC =         5.09113229
  Ewald energy   TEWEN  =       551.15229652
  -Hartree energ DENC   =      -787.57184167
  -exchange      EXHF   =         0.00000000
  -V(xc)+E(xc)   XCENC  =        27.96082410
  PAW double counting   =       102.27369840     -104.74974230
  entropy T*S    EENTRO =        -0.01219974
  eigenvalues    EBANDS =      -106.67053488
  atomic energy  EATOM  =       294.25444774
  Solvation  Ediel_sol  =         0.00000000
  ---------------------------------------------------
  free energy    TOTEN  =       -18.27191953 eV

  energy without entropy =      -18.25971979  energy(sigma->0) =      -18.26785295


--------------------------------------------------------------------------------------------------------




 average (electrostatic) potential at core
  the test charge radii are     0.6991
  (the norm of the test charge is              1.0000)
       1 -60.5644       2 -60.5644
 
 
 
 E-fermi :  -3.9242     XC(G=0):  -4.1649     alpha+bet : -3.1363


 k-point     1 :       0.0000    0.0000    0.0000
  band No.  band energies     occupation 
      1     -23.6871      2.00000
      2     -11.2537      2.00000
      3      -7.9434      2.00000
      4      -7.5466      2.00000
      5       1.0522     -0.00000
      6       2.2709      0.00000
      7       3.1008      0.00000
      8       3.5069      0.00000
      9       4.0309      0.00000
     10       6.0893      0.00000
     11       6.9615      0.00000
     12       7.3636      0.00000
     13       7.7416      0.00000
     14      12.2547      0.00000

 k-point     2 :       0.3333    0.0000    0.0000
  band No.  band energies     occupation 
      1     -21.1797      2.00000
      2     -14.1493      2.00000
      3     -10.2647      2.00000
      4      -8.3373      2.00000
      5       0.7915     -0.00000
      6       3.2730      0.00000
      7       4.5546      0.00000
      8       5.7621      0.00000
      9       6.6469      0.00000
     10       9.3852      0.00000
     11      10.7956      0.00000
     12      11.2361      0.00000
     13      11.7626      0.00000
     14      13.8962      0.00000

 k-point     3 :       0.0000    0.3333    0.0000
  band No.  band energies     occupation 
      1     -21.1733      2.00000
      2     -14.0413      2.00000
      3     -10.4222      2.00000
      4      -8.3755      2.00000
      5       0.9098     -0.00000
      6       3.1996      0.00000
      7       4.5556      0.00000
      8       5.7629      0.00000
      9       6.6477      0.00000
     10       9.3764      0.00000
     11      10.7878      0.00000
     12      11.5133      0.00000
     13      11.7061      0.00000
     14      13.8189      0.00000

 k-point     4 :       0.3333    0.3333    0.0000
  band No.  band energies     occupation 
      1     -17.0487      2.00000
      2     -16.9384      2.00000
      3     -14.8698      2.00000
      4      -4.0142      1.68245
      5      -3.8343      0.31755
      6       7.5030      0.00000
      7       9.0043      0.00000
      8       9.2898      0.00000
      9      10.3978      0.00000
     10      12.4128      0.00000
     11      12.4874      0.00000
     12      12.8434      0.00000
     13      12.8475      0.00000
     14      13.2117      0.00000

 k-point     5 :      -0.3333    0.3333    0.0000
  band No.  band energies     occupation 
      1     -21.1737      2.00000
      2     -14.0476      2.00000
      3     -10.4128      2.00000
      4      -8.3735      2.00000
      5       0.9036     -0.00000
      6       3.2015      0.00000
      7       4.5555      0.00000
      8       5.7628      0.00000
      9       6.6476      0.00000
     10       9.3769      0.00000
     11      10.7882      0.00000
     12      11.5020      0.00000
     13      11.7082      0.00000
     14      13.8228      0.00000


--------------------------------------------------------------------------------------------------------


 soft charge-density along one line, spin component           1
         0         1         2         3         4         5         6         7         8         9
 total charge-density along one line
 
 pseudopotential strength for first ion, spin component:           1
 10.363   0.023  -0.000  -0.000  -0.000   0.000   0.000   0.000
  0.023  -0.001  -0.000   0.000  -0.000   0.000   0.000   0.000
 -0.000  -0.000  -4.486  -0.000  -0.001  -0.012  -0.000  -0.000
 -0.000   0.000  -0.000  -4.465  -0.000  -0.000  -0.008   0.000
 -0.000  -0.000  -0.001  -0.000  -4.487  -0.000   0.000  -0.012
  0.000   0.000  -0.012  -0.000  -0.000  -0.774  -0.000  -0.000
  0.000   0.000  -0.000  -0.008   0.000  -0.000  -0.774  -0.000
  0.000   0.000  -0.000   0.000  -0.012  -0.000  -0.000  -0.774
 total augmentation occupancy for first ion, spin component:           1
  1.468  -1.058  -0.005   0.000  -0.008  -0.002   0.000  -0.003
 -1.058   0.915   0.003   0.000   0.005   0.001   0.000   0.002
 -0.005   0.003   1.253   0.000   0.007   0.215  -0.000   0.003
  0.000   0.000   0.000   0.996   0.000  -0.000   0.093  -0.000
 -0.008   0.005   0.007   0.000   1.262   0.003  -0.000   0.218
 -0.002   0.001   0.215  -0.000   0.003   0.043  -0.000   0.001
  0.000   0.000  -0.000   0.093  -0.000  -0.000   0.011  -0.000
 -0.003   0.002   0.003  -0.000   0.218   0.001  -0.000   0.043


----------------------------------------- Iteration    1(   7)  ---------------------------------------


    POTLOK:  cpu time    0.0040: real time    0.0047
    SETDIJ:  cpu time    0.0030: real time    0.0027
     EDDAV:  cpu time    0.1700: real time    0.3233
       DOS:  cpu time    0.0030: real time    0.0022
    CHARGE:  cpu time    0.0130: real time    0.0136
    MIXING:  cpu time    0.0010: real time    0.0006
    --------------------------------------------
      LOOP:  cpu time    0.1950: real time    0.3493

 eigenvalue-minimisations  :   196
 total energy-change (2. order) : 0.3427413E+00  (-0.1023206E+00)
 number of electron       8.0000000 magnetization 
 augmentation part        0.1955581 magnetization 

 Broyden mixing:
  rms(total) = 0.49984E-01    rms(broyden)= 0.49801E-01
  rms(prec ) = 0.67183E-01
  weight for this iteration     100.00

 eigenvalues of (default mixing * dielectric matrix)
  average eigenvalue GAMMA=   2.2570
  2.1016  2.4124

 Free energy of the ion-electron system (eV)
  ---------------------------------------------------
  alpha Z        PSCENC =         5.09113229
  Ewald energy   TEWEN  =       551.15229652
  -Hartree energ DENC   =      -800.90117301
  -exchange      EXHF   =         0.00000000
  -V(xc)+E(xc)   XCENC  =        28.57767157
  PAW double counting   =       136.46975460     -139.09616131
  entropy T*S    EENTRO =        -0.01496090
  eigenvalues    EBANDS =       -93.46218573
  atomic energy  EATOM  =       294.25444774
  Solvation  Ediel_sol  =         0.00000000
  ---------------------------------------------------
  free energy    TOTEN  =       -17.92917821 eV

  energy without entropy =      -17.91421732  energy(sigma->0) =      -17.92419125


--------------------------------------------------------------------------------------------------------




 average (electrostatic) potential at core
  the test charge radii are     0.6991
  (the norm of the test charge is              1.0000)
       1 -58.0061       2 -58.0060
 
 
 
 E-fermi :  -2.6460     XC(G=0):  -4.1965     alpha+bet : -3.1363


 k-point     1 :       0.0000    0.0000    0.0000
  band No.  band energies     occupation 
      1     -22.0689      2.00000
      2     -10.1352      2.00000
      3      -5.8808      2.00000
      4      -5.5539      2.00000
      5       0.8944     -0.00000
      6       2.0096     -0.00000
      7       2.8915      0.00000
      8       5.2764      0.00000
      9       5.7521      0.00000
     10       5.9563      0.00000
     11       7.1700      0.00000
     12       8.5679      0.00000
     13       9.3925      0.00000
     14      12.1638      0.00000

 k-point     2 :       0.3333    0.0000    0.0000
  band No.  band energies     occupation 
      1     -19.5178      2.00000
      2     -12.3182      2.00000
      3      -8.3443      2.00000
      4      -7.1691      2.00000
      5       2.1257     -0.00000
      6       4.3875      0.00000
      7       4.8513      0.00000
      8       5.5404      0.00000
      9       6.4408      0.00000
     10       9.3094      0.00000
     11      10.6262      0.00000
     12      13.0460      0.00000
     13      13.1744      0.00000
     14      14.1963      0.00000

 k-point     3 :       0.0000    0.3333    0.0000
  band No.  band energies     occupation 
      1     -19.5099      2.00000
      2     -12.2462      2.00000
      3      -8.4654      2.00000
      4      -7.2009      2.00000
      5       2.2264     -0.00000
      6       4.3890      0.00000
      7       4.8132      0.00000
      8       5.5438      0.00000
      9       6.4410      0.00000
     10       9.3056      0.00000
     11      10.6263      0.00000
     12      13.0152      0.00000
     13      13.4393      0.00000
     14      14.1363      0.00000

 k-point     4 :       0.3333    0.3333    0.0000
  band No.  band energies     occupation 
      1     -15.2491      2.00000
      2     -15.2164      2.00000
      3     -13.1216      2.00000
      4      -2.7241      1.60844
      5      -2.5679      0.39156
      6       7.9965      0.00000
      7      10.1582      0.00000
      8      10.3545      0.00000
      9      10.9050      0.00000
     10      12.5481      0.00000
     11      12.6189      0.00000
     12      12.6327      0.00000
     13      12.6552      0.00000
     14      13.1139      0.00000

 k-point     5 :      -0.3333    0.3333    0.0000
  band No.  band energies     occupation 
      1     -19.5103      2.00000
      2     -12.2504      2.00000
      3      -8.4582      2.00000
      4      -7.1992      2.00000
      5       2.2211     -0.00000
      6       4.3888      0.00000
      7       4.8136      0.00000
      8       5.5436      0.00000
      9       6.4410      0.00000
     10       9.3058      0.00000
     11      10.6263      0.00000
     12      13.0163      0.00000
     13      13.4285      0.00000
     14      14.1395      0.00000


--------------------------------------------------------------------------------------------------------


 soft charge-density along one line, spin component           1
         0         1         2         3         4         5         6         7         8         9
 total charge-density along one line
 
 pseudopotential strength for first ion, spin component:           1
 10.225   0.019   0.000  -0.000   0.001  -0.000   0.000  -0.000
  0.019  -0.002  -0.000   0.000  -0.000  -0.000   0.000  -0.000
  0.000  -0.000  -4.332  -0.000  -0.000  -0.019  -0.000  -0.000
 -0.000   0.000  -0.000  -4.325   0.000  -0.000  -0.016  -0.000
  0.001  -0.000  -0.000   0.000  -4.332  -0.000  -0.000  -0.019
 -0.000  -0.000  -0.019  -0.000  -0.000  -0.772   0.000   0.000
  0.000   0.000  -0.000  -0.016  -0.000   0.000  -0.772   0.000
 -0.000  -0.000  -0.000  -0.000  -0.019   0.000   0.000  -0.772
 total augmentation occupancy for first ion, spin component:           1
  1.441  -1.162  -0.004  -0.000  -0.006  -0.002  -0.000  -0.002
 -1.162   1.092   0.005   0.000   0.007   0.002   0.000   0.003
 -0.004   0.005   1.219   0.000   0.008   0.225   0.000   0.003
 -0.000   0.000   0.000   0.932  -0.000   0.000   0.107  -0.000
 -0.006   0.007   0.008  -0.000   1.229   0.003   0.000   0.228
 -0.002   0.002   0.225   0.000   0.003   0.047   0.000   0.001
 -0.000   0.000   0.000   0.107   0.000   0.000   0.014   0.000
 -0.002   0.003   0.003  -0.000   0.228   0.001   0.000   0.048


----------------------------------------- Iteration    1(   8)  ---------------------------------------


    POTLOK:  cpu time    0.0050: real time    0.0047
    SETDIJ:  cpu time    0.0030: real time    0.0029
     EDDAV:  cpu time    0.2010: real time    0.3536
       DOS:  cpu time    0.0010: real time    0.0006
    CHARGE:  cpu time    0.0100: real time    0.0108
    MIXING:  cpu time    0.0010: real time    0.0006
    --------------------------------------------
      LOOP:  cpu time    0.2210: real time    0.3752

 eigenvalue-minimisations  :   210
 total energy-change (2. order) : 0.9782234E-02  (-0.7476537E-03)
 number of electron       8.0000000 magnetization 
 augmentation part        0.1954160 magnetization 

 Broyden mixing:
  rms(total) = 0.77908E-02    rms(broyden)= 0.77389E-02
  rms(prec ) = 0.26118E-01
  weight for this iteration     100.00

 eigenvalues of (default mixing * dielectric matrix)
  average eigenvalue GAMMA=   2.0266
  1.3507  2.6809  2.0483

 Free energy of the ion-electron system (eV)
  ---------------------------------------------------
  alpha Z        PSCENC =         5.09113229
  Ewald energy   TEWEN  =       551.15229652
  -Hartree energ DENC   =      -803.53666958
  -exchange      EXHF   =         0.00000000
  -V(xc)+E(xc)   XCENC  =        28.62143302
  PAW double counting   =       138.03181426     -140.60367501
  entropy T*S    EENTRO =        -0.01403908
  eigenvalues    EBANDS =       -90.91613614
  atomic energy  EATOM  =       294.25444774
  Solvation  Ediel_sol  =         0.00000000
  ---------------------------------------------------
  free energy    TOTEN  =       -17.91939598 eV

  energy without entropy =      -17.90535690  energy(sigma->0) =      -17.91471629


--------------------------------------------------------------------------------------------------------




 average (electrostatic) potential at core
  the test charge radii are     0.6991
  (the norm of the test charge is              1.0000)
       1 -57.8178       2 -57.8182
 
 
 
 E-fermi :  -2.3533     XC(G=0):  -4.1940     alpha+bet : -3.1363


 k-point     1 :       0.0000    0.0000    0.0000
  band No.  band energies     occupation 
      1     -21.7382      2.00000
      2      -9.8396      2.00000
      3      -5.5693      2.00000
      4      -5.2249      2.00000
      5       0.9470     -0.00000
      6       2.0642     -0.00000
      7       2.6956     -0.00000
      8       5.5951      0.00000
      9       5.8782      0.00000
     10       6.0855      0.00000
     11       7.1233      0.00000
     12       8.8617      0.00000
     13       9.6949      0.00000
     14      12.1499      0.00000

 k-point     2 :       0.3333    0.0000    0.0000
  band No.  band energies     occupation 
      1     -19.1881      2.00000
      2     -11.9977      2.00000
      3      -8.0155      2.00000
      4      -6.8735      2.00000
      5       2.4162     -0.00000
      6       4.4723      0.00000
      7       5.1774      0.00000
      8       5.6069      0.00000
      9       6.2406      0.00000
     10       9.2459      0.00000
     11      10.5852      0.00000
     12      13.3057      0.00000
     13      13.4847      0.00000
     14      14.3495      0.00000

 k-point     3 :       0.0000    0.3333    0.0000
  band No.  band energies     occupation 
      1     -19.1810      2.00000
      2     -11.9167      2.00000
      3      -8.1444      2.00000
      4      -6.9070      2.00000
      5       2.5222     -0.00000
      6       4.4734      0.00000
      7       5.1276      0.00000
      8       5.6103      0.00000
      9       6.2401      0.00000
     10       9.2428      0.00000
     11      10.5853      0.00000
     12      13.2811      0.00000
     13      13.7530      0.00000
     14      14.2909      0.00000

 k-point     4 :       0.3333    0.3333    0.0000
  band No.  band energies     occupation 
      1     -14.9380      2.00000
      2     -14.8824      2.00000
      3     -12.7809      2.00000
      4      -2.4354      1.63433
      5      -2.2711      0.36567
      6       8.3012      0.00000
      7      10.3860      0.00000
      8      10.5777      0.00000
      9      11.1402      0.00000
     10      12.4773      0.00000
     11      12.5658      0.00000
     12      12.6781      0.00000
     13      12.7009      0.00000
     14      12.9062      0.00000

 k-point     5 :      -0.3333    0.3333    0.0000
  band No.  band energies     occupation 
      1     -19.1814      2.00000
      2     -11.9213      2.00000
      3      -8.1368      2.00000
      4      -6.9053      2.00000
      5       2.5167     -0.00000
      6       4.4733      0.00000
      7       5.1284      0.00000
      8       5.6101      0.00000
      9       6.2401      0.00000
     10       9.2429      0.00000
     11      10.5852      0.00000
     12      13.2818      0.00000
     13      13.7420      0.00000
     14      14.2940      0.00000


--------------------------------------------------------------------------------------------------------


 soft charge-density along one line, spin component           1
         0         1         2         3         4         5         6         7         8         9
 total charge-density along one line
 
 pseudopotential strength for first ion, spin component:           1
 10.204   0.018   0.000   0.000   0.000  -0.000  -0.000  -0.000
  0.018  -0.002  -0.000  -0.000  -0.000  -0.000  -0.000  -0.000
  0.000  -0.000  -4.324  -0.000  -0.000  -0.017  -0.000  -0.000
  0.000  -0.000  -0.000  -4.319  -0.000  -0.000  -0.014   0.000
  0.000  -0.000  -0.000  -0.000  -4.324  -0.000   0.000  -0.017
 -0.000  -0.000  -0.017  -0.000  -0.000  -0.772  -0.000   0.000
 -0.000  -0.000  -0.000  -0.014   0.000  -0.000  -0.772  -0.000
 -0.000  -0.000  -0.000   0.000  -0.017   0.000  -0.000  -0.772
 total augmentation occupancy for first ion, spin component:           1
  1.442  -1.148  -0.004   0.000  -0.006  -0.002   0.000  -0.003
 -1.148   1.070   0.006   0.000   0.010   0.002   0.000   0.003
 -0.004   0.006   1.220   0.000   0.007   0.224   0.000   0.003
  0.000   0.000   0.000   0.930  -0.000   0.000   0.106  -0.000
 -0.006   0.010   0.007  -0.000   1.230   0.003   0.000   0.227
 -0.002   0.002   0.224   0.000   0.003   0.047   0.000   0.001
  0.000   0.000   0.000   0.106   0.000   0.000   0.014   0.000
 -0.003   0.003   0.003  -0.000   0.227   0.001   0.000   0.048


----------------------------------------- Iteration    1(   9)  ---------------------------------------


    POTLOK:  cpu time    0.0050: real time    0.0048
    SETDIJ:  cpu time    0.0030: real time    0.0030
     EDDAV:  cpu time    0.1740: real time    0.3207
       DOS:  cpu time    0.0010: real time    0.0010
    CHARGE:  cpu time    0.0040: real time    0.0041
    MIXING:  cpu time    0.0010: real time    0.0005
    --------------------------------------------
      LOOP:  cpu time    0.1890: real time    0.3364

 eigenvalue-minimisations  :   252
 total energy-change (2. order) : 0.2066354E-02  (-0.1250238E-03)
 number of electron       8.0000000 magnetization 
 augmentation part        0.1951490 magnetization 

 Broyden mixing:
  rms(total) = 0.67292E-02    rms(broyden)= 0.67230E-02
  rms(prec ) = 0.20047E-01
  weight for this iteration     100.00

 eigenvalues of (default mixing * dielectric matrix)
  average eigenvalue GAMMA=   2.0497
  2.9261  0.9438  2.3860  1.9429

 Free energy of the ion-electron system (eV)
  ---------------------------------------------------
  alpha Z        PSCENC =         5.09113229
  Ewald energy   TEWEN  =       551.15229652
  -Hartree energ DENC   =      -804.80868793
  -exchange      EXHF   =         0.00000000
  -V(xc)+E(xc)   XCENC  =        28.64544247
  PAW double counting   =       138.32124881     -140.89071068
  entropy T*S    EENTRO =        -0.01424024
  eigenvalues    EBANDS =       -89.66825862
  atomic energy  EATOM  =       294.25444774
  Solvation  Ediel_sol  =         0.00000000
  ---------------------------------------------------
  free energy    TOTEN  =       -17.91732963 eV

  energy without entropy =      -17.90308939  energy(sigma->0) =      -17.91258288


--------------------------------------------------------------------------------------------------------




 average (electrostatic) potential at core
  the test charge radii are     0.6991
  (the norm of the test charge is              1.0000)
       1 -57.6601       2 -57.6589
 
 
 
 E-fermi :  -2.2078     XC(G=0):  -4.1556     alpha+bet : -3.1363


 k-point     1 :       0.0000    0.0000    0.0000
  band No.  band energies     occupation 
      1     -21.5804      2.00000
      2      -9.6989      2.00000
      3      -5.4042      2.00000
      4      -5.0640      2.00000
      5       0.9826     -0.00000
      6       2.1196     -0.00000
      7       2.6656     -0.00000
      8       5.7559      0.00000
      9       5.8805      0.00000
     10       6.2431      0.00000
     11       7.1728      0.00000
     12       9.0160      0.00000
     13       9.8507      0.00000
     14      12.1924      0.00000

 k-point     2 :       0.3333    0.0000    0.0000
  band No.  band energies     occupation 
      1     -19.0298      2.00000
      2     -11.8358      2.00000
      3      -7.8548      2.00000
      4      -6.7315      2.00000
      5       2.5628     -0.00000
      6       4.5157      0.00000
      7       5.3272      0.00000
      8       5.6642      0.00000
      9       6.2120      0.00000
     10       9.2560      0.00000
     11      10.6359      0.00000
     12      13.4291      0.00000
     13      13.6459      0.00000
     14      14.4249      0.00000

 k-point     3 :       0.0000    0.3333    0.0000
  band No.  band energies     occupation 
      1     -19.0225      2.00000
      2     -11.7570      2.00000
      3      -7.9816      2.00000
      4      -6.7645      2.00000
      5       2.6676     -0.00000
      6       4.5170      0.00000
      7       5.2804      0.00000
      8       5.6676      0.00000
      9       6.2110      0.00000
     10       9.2533      0.00000
     11      10.6361      0.00000
     12      13.4053      0.00000
     13      13.9134      0.00000
     14      14.3676      0.00000

 k-point     4 :       0.3333    0.3333    0.0000
  band No.  band energies     occupation 
      1     -14.7759      2.00000
      2     -14.7259      2.00000
      3     -12.6201      2.00000
      4      -2.2890      1.62879
      5      -2.1265      0.37121
      6       8.4135      0.00000
      7      10.4947      0.00000
      8      10.6816      0.00000
      9      11.2229      0.00000
     10      12.4910      0.00000
     11      12.5738      0.00000
     12      12.7310      0.00000
     13      12.7561      0.00000
     14      12.8875      0.00000

 k-point     5 :      -0.3333    0.3333    0.0000
  band No.  band energies     occupation 
      1     -19.0229      2.00000
      2     -11.7615      2.00000
      3      -7.9742      2.00000
      4      -6.7628      2.00000
      5       2.6621     -0.00000
      6       4.5169      0.00000
      7       5.2811      0.00000
      8       5.6674      0.00000
      9       6.2111      0.00000
     10       9.2535      0.00000
     11      10.6361      0.00000
     12      13.4059      0.00000
     13      13.9025      0.00000
     14      14.3706      0.00000


--------------------------------------------------------------------------------------------------------


 soft charge-density along one line, spin component           1
         0         1         2         3         4         5         6         7         8         9
 total charge-density along one line
 
 pseudopotential strength for first ion, spin component:           1
 10.194   0.018   0.000   0.000   0.000  -0.000  -0.000  -0.000
  0.018  -0.002  -0.000   0.000  -0.000  -0.000  -0.000  -0.000
  0.000  -0.000  -4.315  -0.000  -0.000  -0.017  -0.000  -0.000
  0.000   0.000  -0.000  -4.311  -0.000  -0.000  -0.014   0.000
  0.000  -0.000  -0.000  -0.000  -4.316  -0.000   0.000  -0.017
 -0.000  -0.000  -0.017  -0.000  -0.000  -0.772  -0.000   0.000
 -0.000  -0.000  -0.000  -0.014   0.000  -0.000  -0.772  -0.000
 -0.000  -0.000  -0.000   0.000  -0.017   0.000  -0.000  -0.772
 total augmentation occupancy for first ion, spin component:           1
  1.442  -1.145  -0.004   0.000  -0.006  -0.002  -0.000  -0.003
 -1.145   1.067   0.006  -0.000   0.009   0.002  -0.000   0.003
 -0.004   0.006   1.220   0.000   0.007   0.224  -0.000   0.003
  0.000  -0.000   0.000   0.929  -0.000  -0.000   0.106   0.000
 -0.006   0.009   0.007  -0.000   1.230   0.003  -0.000   0.227
 -0.002   0.002   0.224  -0.000   0.003   0.047  -0.000   0.001
 -0.000  -0.000  -0.000   0.106  -0.000  -0.000   0.014  -0.000
 -0.003   0.003   0.003   0.000   0.227   0.001  -0.000   0.048


----------------------------------------- Iteration    1(  10)  ---------------------------------------


    POTLOK:  cpu time    0.0050: real time    0.0049
    SETDIJ:  cpu time    0.0030: real time    0.0029
     EDDAV:  cpu time    0.2220: real time    0.3621
       DOS:  cpu time    0.0000: real time    0.0002
    CHARGE:  cpu time    0.0080: real time    0.0080
    MIXING:  cpu time    0.0010: real time    0.0009
    --------------------------------------------
      LOOP:  cpu time    0.2390: real time    0.3809

 eigenvalue-minimisations  :   154
 total energy-change (2. order) : 0.2093163E-02  (-0.1761743E-03)
 number of electron       8.0000000 magnetization 
 augmentation part        0.1949525 magnetization 

 Broyden mixing:
  rms(total) = 0.46192E-02    rms(broyden)= 0.46119E-02
  rms(prec ) = 0.10281E-01
  weight for this iteration     100.00

 eigenvalues of (default mixing * dielectric matrix)
  average eigenvalue GAMMA=   1.8584
  3.2207  2.4865  1.9650  0.9602  0.6596

 Free energy of the ion-electron system (eV)
  ---------------------------------------------------
  alpha Z        PSCENC =         5.09113229
  Ewald energy   TEWEN  =       551.15229652
  -Hartree energ DENC   =      -807.00269676
  -exchange      EXHF   =         0.00000000
  -V(xc)+E(xc)   XCENC  =        28.66905198
  PAW double counting   =       137.36783550     -139.94023121
  entropy T*S    EENTRO =        -0.01458964
  eigenvalues    EBANDS =       -87.49248290
  atomic energy  EATOM  =       294.25444774
  Solvation  Ediel_sol  =         0.00000000
  ---------------------------------------------------
  free energy    TOTEN  =       -17.91523646 eV

  energy without entropy =      -17.90064682  energy(sigma->0) =      -17.91037325


--------------------------------------------------------------------------------------------------------




 average (electrostatic) potential at core
  the test charge radii are     0.6991
  (the norm of the test charge is              1.0000)
       1 -57.3746       2 -57.3832
 
 
 
 E-fermi :  -1.9417     XC(G=0):  -3.9420     alpha+bet : -3.1363


 k-point     1 :       0.0000    0.0000    0.0000
  band No.  band energies     occupation 
      1     -21.3064      2.00000
      2      -9.4395      2.00000
      3      -5.1253      2.00000
      4      -4.7919      2.00000
      5       1.2143     -0.00000
      6       2.4848     -0.00000
      7       2.6777     -0.00000
      8       5.9682      0.00000
      9       6.0341      0.00000
     10       6.5159      0.00000
     11       7.4738      0.00000
     12       9.2915      0.00000
     13      10.1261      0.00000
     14      12.4828      0.00000

 k-point     2 :       0.3333    0.0000    0.0000
  band No.  band energies     occupation 
      1     -18.7555      2.00000
      2     -11.5584      2.00000
      3      -7.5812      2.00000
      4      -6.4702      2.00000
      5       2.8307     -0.00000
      6       4.7562      0.00000
      7       5.5878      0.00000
      8       6.0257      0.00000
      9       6.2230      0.00000
     10       9.3523      0.00000
     11      10.9434      0.00000
     12      13.6832      0.00000
     13      13.9225      0.00000
     14      14.6902      0.00000

 k-point     3 :       0.0000    0.3333    0.0000
  band No.  band energies     occupation 
      1     -18.7480      2.00000
      2     -11.4830      2.00000
      3      -7.7052      2.00000
      4      -6.5026      2.00000
      5       2.9336     -0.00000
      6       4.7576      0.00000
      7       5.5472      0.00000
      8       6.0289      0.00000
      9       6.2206      0.00000
     10       9.3501      0.00000
     11      10.9436      0.00000
     12      13.6585      0.00000
[...]


   POT+DIJ:  cpu time    0.0160: real time    0.0156
    HAMIL1:  cpu time    0.0100: real time    0.0427
    LRDIAG:  cpu time    0.0030: real time    0.0032
    LRDIIS:  cpu time    0.0240: real time    0.0293
    LRDIAG:  cpu time    0.0010: real time    0.0019
    MIXING:  cpu time    0.0020: real time    0.0007
    --------------------------------------------
      LOOP:  cpu time    0.0620: real time    0.0999

 Broyden mixing:
  rms(total) = 0.24396E-05    rms(broyden)= 0.24391E-05
  rms(prec ) = 0.29452E-05
  weight for this iteration     100.00

 eigenvalues of (default mixing * dielectric matrix)
  average eigenvalue GAMMA=   1.5530
  3.0550  2.6812  2.4520  2.3414  0.4045  1.7086  0.9811  0.9811  1.0267  1.0267
  0.4247

 Free energy of the ion-electron system (eV)
  ---------------------------------------------------
  -Hartree energ DENC   =      -141.14616552
  -V(xc)+E(xc)   XCENC  =         9.04756897
  PAW double counting   =       133.90673709     -134.04319540
  entropy T*S    EENTRO =         0.00000000
  eigenvalues    EBANDS =      -138.08920425
  ---------------------------------------------------
  free energy    TOTEN  =      -270.32425909 eV

  energy without entropy =     -270.32425909


----------------------------------------- Iteration    2(  14)  ---------------------------------------


   POT+DIJ:  cpu time    0.0150: real time    0.0151
    HAMIL1:  cpu time    0.0090: real time    0.0509
    LRDIAG:  cpu time    0.0030: real time    0.0030
    LRDIIS:  cpu time    0.0200: real time    0.0282
    LRDIAG:  cpu time    0.0020: real time    0.0020
    MIXING:  cpu time    0.0010: real time    0.0007
    --------------------------------------------
      LOOP:  cpu time    0.0560: real time    0.1062

 Broyden mixing:
  rms(total) = 0.12546E-05    rms(broyden)= 0.12530E-05
  rms(prec ) = 0.15661E-05
  weight for this iteration     100.00

 eigenvalues of (default mixing * dielectric matrix)
  average eigenvalue GAMMA=   1.6958
  3.2656  3.0241  0.4045  2.5493  2.4418  2.0391  1.7199  0.9803  0.9803  1.0388
  1.0388  0.8674

 Free energy of the ion-electron system (eV)
  ---------------------------------------------------
  -Hartree energ DENC   =      -141.14614953
  -V(xc)+E(xc)   XCENC  =         9.04756714
  PAW double counting   =       133.90675381     -134.04321199
  entropy T*S    EENTRO =         0.00000000
  eigenvalues    EBANDS =      -138.08920090
  ---------------------------------------------------
  free energy    TOTEN  =      -270.32424147 eV

  energy without entropy =     -270.32424147


------------------------ aborting loop because EDIFF is reached ----------------------------------------


 change of polarisation eV/A/(eV/A) component  2 :   610.737   388.561     0.000
 dielectric tensor                  component  2 :  1726.325  1099.316     0.000


--------------------------------------------------------------------------------------------------------


    FORLOC:  cpu time    0.0010: real time    0.0003
    FORNL :  cpu time    0.0450: real time    0.4420
    STRESS:  cpu time    0.1510: real time    1.1454
    OFIELD:  cpu time    0.0000: real time    0.0001
    FORLOC:  cpu time    0.0000: real time    0.0002
    FORNL :  cpu time    0.0480: real time    0.3696
    STRESS:  cpu time    0.1240: real time    1.3965
    OFIELD:  cpu time    0.0000: real time    0.0000
    FORNLD:  cpu time    0.1250: real time    1.9063

 PIEZOELECTRIC TENSOR FIELD DIRECTION 2  (e Angst)
 -----------------------------------------------------------------------------
     9.94537 -6.34041 -0.00001           ( -0.00039  0.00025 -0.00000)
    -6.34036 -9.94475  0.00003           (  0.00025  0.00038  0.00000)
    -0.00001  0.00003  0.00002           ( -0.00000  0.00000  0.00000)

 PIEZOELECTRIC TENSOR FIELD DIRECTION 2  (C/m^2)
 -----------------------------------------------------------------------------
     2.48905 -1.58683 -0.00000
    -1.58682 -2.48890  0.00001
    -0.00000  0.00001  0.00000


      POSITION         DIRECTION 2           BORN EFFECTIVE CHARGE    (rigid.aug.   ionic)
 -----------------------------------------------------------------------------------------
      1.23502      2.14564      1.70004    -9.31783  8.01498 -0.00045 ( -0.09742  4.00000)
      0.00596      1.43677      1.70004     3.52674-12.02991  0.00041 ( -0.09742  4.00000)
 -----------------------------------------------------------------------------------------
    total drift (improves with k-points):  -5.79109 -4.01493 -0.00005




--------------------------------------------------------------------------------------------------------


 Linear response to external field, progress :
  Direction:   3


----------------------------------------- Iteration    3(   1)  ---------------------------------------


   POT+DIJ:  cpu time    0.0150: real time    0.0152
    HAMIL1:  cpu time    0.0080: real time    0.0305
    LRDIAG:  cpu time    0.0020: real time    0.0024
    LRDIIS:  cpu time    0.0380: real time    0.0426
    LRDIAG:  cpu time    0.0010: real time    0.0015
    --------------------------------------------
      LOOP:  cpu time    0.0640: real time    0.0923

 Free energy of the ion-electron system (eV)
  ---------------------------------------------------
  -Hartree energ DENC   =         0.00000000
  -V(xc)+E(xc)   XCENC  =         0.00000000
  PAW double counting   =         0.00000000        0.00000000
  entropy T*S    EENTRO =         0.00000000
  eigenvalues    EBANDS =        -0.08645472
  ---------------------------------------------------
  free energy    TOTEN  =        -0.08645472 eV

  energy without entropy =       -0.08645472


----------------------------------------- Iteration    3(   2)  ---------------------------------------


   POT+DIJ:  cpu time    0.0130: real time    0.0133
    HAMIL1:  cpu time    0.0060: real time    0.0300
    LRDIAG:  cpu time    0.0020: real time    0.0022
    LRDIIS:  cpu time    0.0210: real time    0.0259
    LRDIAG:  cpu time    0.0010: real time    0.0016
    MIXING:  cpu time    0.0010: real time    0.0003
    --------------------------------------------
      LOOP:  cpu time    0.0560: real time    0.0848

 Broyden mixing:
  rms(total) = 0.48871E-01    rms(broyden)= 0.48865E-01
  rms(prec ) = 0.10682E+00
  weight for this iteration     100.00

 Free energy of the ion-electron system (eV)
  ---------------------------------------------------
  -Hartree energ DENC   =         0.00000000
  -V(xc)+E(xc)   XCENC  =         0.00000000
  PAW double counting   =         0.00000000        0.00000000
  entropy T*S    EENTRO =         0.00000000
  eigenvalues    EBANDS =        -0.08795481
  ---------------------------------------------------
  free energy    TOTEN  =        -0.08795481 eV

  energy without entropy =       -0.08795481


----------------------------------------- Iteration    3(   3)  ---------------------------------------


   POT+DIJ:  cpu time    0.0130: real time    0.0137
    HAMIL1:  cpu time    0.0110: real time    0.0345
    LRDIAG:  cpu time    0.0040: real time    0.0038
    LRDIIS:  cpu time    0.0220: real time    0.0264
    LRDIAG:  cpu time    0.0010: real time    0.0015
    MIXING:  cpu time    0.0010: real time    0.0003
    --------------------------------------------
      LOOP:  cpu time    0.0570: real time    0.0864

 Broyden mixing:
  rms(total) = 0.19206E-01    rms(broyden)= 0.19206E-01
  rms(prec ) = 0.53179E-01
  weight for this iteration     100.00

 eigenvalues of (default mixing * dielectric matrix)
  average eigenvalue GAMMA=   1.3189
  1.3189

 Free energy of the ion-electron system (eV)
  ---------------------------------------------------
  -Hartree energ DENC   =        -0.00614703
  -V(xc)+E(xc)   XCENC  =         0.00016055
  PAW double counting   =         0.00002383       -0.00002384
  entropy T*S    EENTRO =         0.00000000
  eigenvalues    EBANDS =        -0.04654464
  ---------------------------------------------------
  free energy    TOTEN  =        -0.05253112 eV

  energy without entropy =       -0.05253112


----------------------------------------- Iteration    3(   4)  ---------------------------------------


   POT+DIJ:  cpu time    0.0140: real time    0.0142
    HAMIL1:  cpu time    0.0090: real time    0.0320
    LRDIAG:  cpu time    0.0030: real time    0.0033
    LRDIIS:  cpu time    0.0210: real time    0.0266
    LRDIAG:  cpu time    0.0040: real time    0.0035
    MIXING:  cpu time    0.0000: real time    0.0004
    --------------------------------------------
      LOOP:  cpu time    0.0570: real time    0.0864

 Broyden mixing:
  rms(total) = 0.10660E-01    rms(broyden)= 0.10657E-01
  rms(prec ) = 0.23311E-01
  weight for this iteration     100.00

 eigenvalues of (default mixing * dielectric matrix)
  average eigenvalue GAMMA=   1.9218
  1.9218  1.9218

 Free energy of the ion-electron system (eV)
  ---------------------------------------------------
  -Hartree energ DENC   =        -0.01783747
  -V(xc)+E(xc)   XCENC  =         0.00042447
  PAW double counting   =         0.00001152       -0.00001048
  entropy T*S    EENTRO =         0.00000000
  eigenvalues    EBANDS =        -0.02557082
  ---------------------------------------------------
  free energy    TOTEN  =        -0.04298276 eV

  energy without entropy =       -0.04298276


----------------------------------------- Iteration    3(   5)  ---------------------------------------


   POT+DIJ:  cpu time    0.0150: real time    0.0145
    HAMIL1:  cpu time    0.0160: real time    0.0411
    LRDIAG:  cpu time    0.0040: real time    0.0034
    LRDIIS:  cpu time    0.0220: real time    0.0283
    LRDIAG:  cpu time    0.0010: real time    0.0015
    MIXING:  cpu time    0.0000: real time    0.0004
    --------------------------------------------
      LOOP:  cpu time    0.0640: real time    0.0947

 Broyden mixing:
  rms(total) = 0.43892E-02    rms(broyden)= 0.43882E-02
  rms(prec ) = 0.10444E-01
  weight for this iteration     100.00

 eigenvalues of (default mixing * dielectric matrix)
  average eigenvalue GAMMA=   2.3384
  2.7230  2.7230  1.5693

 Free energy of the ion-electron system (eV)
  ---------------------------------------------------
  -Hartree energ DENC   =        -0.02194791
  -V(xc)+E(xc)   XCENC  =         0.00051619
  PAW double counting   =         0.00019623       -0.00018854
  entropy T*S    EENTRO =         0.00000000
  eigenvalues    EBANDS =        -0.02016794
  ---------------------------------------------------
  free energy    TOTEN  =        -0.04159196 eV

  energy without entropy =       -0.04159196


----------------------------------------- Iteration    3(   6)  ---------------------------------------


   POT+DIJ:  cpu time    0.0140: real time    0.0139
    HAMIL1:  cpu time    0.0130: real time    0.0348
    LRDIAG:  cpu time    0.0020: real time    0.0026
    LRDIIS:  cpu time    0.0210: real time    0.0257
    LRDIAG:  cpu time    0.0020: real time    0.0020
    MIXING:  cpu time    0.0000: real time    0.0004
    --------------------------------------------
      LOOP:  cpu time    0.0590: real time    0.0855

 Broyden mixing:
  rms(total) = 0.20748E-02    rms(broyden)= 0.20723E-02
  rms(prec ) = 0.44478E-02
  weight for this iteration     100.00

 eigenvalues of (default mixing * dielectric matrix)
  average eigenvalue GAMMA=   2.0499
  3.0069  3.0069  1.5642  0.6215

 Free energy of the ion-electron system (eV)
  ---------------------------------------------------
  -Hartree energ DENC   =        -0.02289614
  -V(xc)+E(xc)   XCENC  =         0.00047396
  PAW double counting   =         0.00005838       -0.00005600
  entropy T*S    EENTRO =         0.00000000
  eigenvalues    EBANDS =        -0.01824478
  ---------------------------------------------------
  free energy    TOTEN  =        -0.04066458 eV

  energy without entropy =       -0.04066458


----------------------------------------- Iteration    3(   7)  ---------------------------------------


   POT+DIJ:  cpu time    0.0150: real time    0.0155
    HAMIL1:  cpu time    0.0210: real time    0.0481
    LRDIAG:  cpu time    0.0050: real time    0.0050
    LRDIIS:  cpu time    0.0270: real time    0.0329
    LRDIAG:  cpu time    0.0040: real time    0.0035
    MIXING:  cpu time    0.0010: real time    0.0007
    --------------------------------------------
      LOOP:  cpu time    0.0810: real time    0.1145

 Broyden mixing:
  rms(total) = 0.26907E-02    rms(broyden)= 0.26832E-02
  rms(prec ) = 0.39268E-02
  weight for this iteration     100.00

 eigenvalues of (default mixing * dielectric matrix)
  average eigenvalue GAMMA=   2.0831
  3.8522  3.1915  1.4878  1.4878  0.3961

 Free energy of the ion-electron system (eV)
  ---------------------------------------------------
  -Hartree energ DENC   =        -0.02271993
  -V(xc)+E(xc)   XCENC  =         0.00046075
  PAW double counting   =         0.00004503       -0.00004321
  entropy T*S    EENTRO =         0.00000000
  eigenvalues    EBANDS =        -0.01826646
  ---------------------------------------------------
  free energy    TOTEN  =        -0.04052383 eV

  energy without entropy =       -0.04052383


----------------------------------------- Iteration    3(   8)  ---------------------------------------


   POT+DIJ:  cpu time    0.0200: real time    0.0194
    HAMIL1:  cpu time    0.0100: real time    0.0355
    LRDIAG:  cpu time    0.0040: real time    0.0035
    LRDIIS:  cpu time    0.0340: real time    0.0407
    LRDIAG:  cpu time    0.0020: real time    0.0019
    MIXING:  cpu time    0.0000: real time    0.0004
    --------------------------------------------
      LOOP:  cpu time    0.0850: real time    0.1164

 Broyden mixing:
  rms(total) = 0.11550E-02    rms(broyden)= 0.11485E-02
  rms(prec ) = 0.20845E-02
  weight for this iteration     100.00

 eigenvalues of (default mixing * dielectric matrix)
  average eigenvalue GAMMA=   2.6482
  6.8706  3.4094  2.6002  1.5748  1.0435  0.3910

 Free energy of the ion-electron system (eV)
  ---------------------------------------------------
  -Hartree energ DENC   =        -0.02262115
  -V(xc)+E(xc)   XCENC  =         0.00044871
  PAW double counting   =         0.00004318       -0.00004134
  entropy T*S    EENTRO =         0.00000000
  eigenvalues    EBANDS =        -0.01831721
  ---------------------------------------------------
  free energy    TOTEN  =        -0.04048781 eV

  energy without entropy =       -0.04048781


------------------------ aborting loop because EDIFF is reached ----------------------------------------


 change of polarisation eV/A/(eV/A) component  3 :     0.023     0.015     0.075
 dielectric tensor                  component  3 :     0.065     0.041     1.212


--------------------------------------------------------------------------------------------------------


    FORLOC:  cpu time    0.0010: real time    0.0003
    FORNL :  cpu time    0.0410: real time    0.3793
    STRESS:  cpu time    0.1410: real time    1.3372
    OFIELD:  cpu time    0.0000: real time    0.0000
    FORLOC:  cpu time    0.0020: real time    0.0011
    FORNL :  cpu time    0.0400: real time    0.4126
    STRESS:  cpu time    0.1200: real time    1.3360
    OFIELD:  cpu time    0.0000: real time    0.0001
    FORNLD:  cpu time    0.1190: real time    1.4074

 PIEZOELECTRIC TENSOR FIELD DIRECTION 3  (e Angst)
 -----------------------------------------------------------------------------
     0.00010 -0.00006 -0.00001           (  0.00000 -0.00000 -0.00000)
    -0.00006 -0.00010 -0.00010           ( -0.00000  0.00000 -0.00000)
    -0.00001 -0.00010 -0.00001           ( -0.00000 -0.00000  0.00000)

 PIEZOELECTRIC TENSOR FIELD DIRECTION 3  (C/m^2)
 -----------------------------------------------------------------------------
     0.00002 -0.00002 -0.00000
    -0.00002 -0.00002 -0.00002
    -0.00000 -0.00002 -0.00000


      POSITION         DIRECTION 3           BORN EFFECTIVE CHARGE    (rigid.aug.   ionic)
 -----------------------------------------------------------------------------------------
      1.23502      2.14564      1.70004    -0.00002  0.00003 -0.00428 ( -0.09742  4.00000)
      0.00596      1.43677      1.70004     0.00002 -0.00003 -0.00433 ( -0.09742  4.00000)
 -----------------------------------------------------------------------------------------
    total drift (improves with k-points):   0.00001  0.00001 -0.00861




--------------------------------------------------------------------------------------------------------




 MACROSCOPIC STATIC DIELECTRIC TENSOR (including local field effects in DFT)
 ------------------------------------------------------
        2784.380218  1726.325363     0.064667
        1769.074553  1099.316468     0.041113
           0.000066     0.000041     1.211627
 ------------------------------------------------------



--------------------------------------------------------------------------------------------------------




--------------------------------------------------------------------------------------------------------




 MACROSCOPIC STATIC DIELECTRIC TENSOR (including local field effects in DFT)
 ------------------------------------------------------
        2784.380218  1726.325363     0.064667
        1769.074553  1099.316468     0.041113
           0.000066     0.000041     1.211627
 ------------------------------------------------------


 PIEZOELECTRIC TENSOR  for field in x, y, z        (e  Angst)
          XX          YY          ZZ          XY          YZ          ZX
  --------------------------------------------------------------------------------
  x    15.92779   -15.92640    -0.00001   -10.15271     0.00004    -0.00001
  y     9.94537    -9.94475     0.00002    -6.34036     0.00003    -0.00001
  z     0.00010    -0.00010    -0.00001    -0.00006    -0.00010    -0.00001

 PIEZOELECTRIC TENSOR  for field in x, y, z        (C/m^2)
          XX          YY          ZZ          XY          YZ          ZX
  --------------------------------------------------------------------------------
  x     3.98629    -3.98594    -0.00000    -2.54094     0.00001    -0.00000
  y     2.48905    -2.48890     0.00000    -1.58682     0.00001    -0.00000
  z     0.00002    -0.00002    -0.00000    -0.00002    -0.00002    -0.00000
 
 BORN EFFECTIVE CHARGES (in e, cummulative output)
 -------------------------------------------------
 ion    1
    1   -10.30131    16.07495    -0.00080
    2    -6.42229    10.02244    -0.00043
    3    -0.00002     0.00003     0.00003
 ion    2
    1    10.30131   -16.07495     0.00080
    2     6.42229   -10.02244     0.00043
    3     0.00002    -0.00003    -0.00003


--------------------------------------------------------------------------------------------------------


     LOOP+:  cpu time    9.1436: real time   28.8625
    4ORBIT:  cpu time    0.0000: real time    0.0000

 total amount of memory used by VASP MPI-rank0    32837. kBytes
=======================================================================

   base      :      30000. kBytes
   nonlr-proj:        208. kBytes
   fftplans  :       1526. kBytes
   grid      :        907. kBytes
   one-center:          6. kBytes
   wavefun   :        190. kBytes
 
  
  
 General timing and accounting informations for this job:
 ========================================================
  
                  Total CPU time used (sec):       10.226
                            User time (sec):        9.217
                          System time (sec):        1.010
                         Elapsed time (sec):       30.842
  
                   Maximum memory used (kb):      296044.
                   Average memory used (kb):           0.
  
                          Minor page faults:        64548
                          Major page faults:            0
                 Voluntary context switches:        13590
