 vasp.5.4.4.18Apr17-6-g9f103f2a35 (build May 02 2017 19:20:32) complex          
  
 executed on    fermion-Intel-MKL date 2017.12.10  16:49:14
 running on    7 total cores
 distrk:  each k-point on    7 cores,    1 groups
 distr:  one band on NCORES_PER_BAND=   1 cores,    7 groups


--------------------------------------------------------------------------------------------------------


 INCAR:
 POTCAR:   PAW_PBE C 08Apr2002                    

 ----------------------------------------------------------------------------- 
|                                                                             |
|           W    W    AA    RRRRR   N    N  II  N    N   GGGG   !!!           |
|           W    W   A  A   R    R  NN   N  II  NN   N  G    G  !!!           |
|           W    W  A    A  R    R  N N  N  II  N N  N  G       !!!           |
|           W WW W  AAAAAA  RRRRR   N  N N  II  N  N N  G  GGG   !            |
|           WW  WW  A    A  R   R   N   NN  II  N   NN  G    G                |
|           W    W  A    A  R    R  N    N  II  N    N   GGGG   !!!           |
|                                                                             |
|      For optimal performance we recommend to set                            |
|        NCORE= 4 - approx SQRT( number of cores)                             |
|      NCORE specifies how many cores store one orbital (NPAR=cpu/NCORE).     |
|      This setting can  greatly improve the performance of VASP for DFT.     |
|      The default,   NCORE=1            might be grossly inefficient         |
|      on modern multi-core architectures or massively parallel machines.     |
|      Do your own testing !!!!                                               |
|      Unfortunately you need to use the default for GW and RPA calculations. |
|      (for HF NCORE is supported but not extensively tested yet)             |
|                                                                             |
 ----------------------------------------------------------------------------- 

 POTCAR:   PAW_PBE C 08Apr2002                    
   VRHFIN =C: s2p2                                                              
   LEXCH  = PE                                                                  
   EATOM  =   147.1560 eV,   10.8157 Ry                                         
                                                                                
   TITEL  = PAW_PBE C 08Apr2002                                                 
   LULTRA =        F    use ultrasoft PP ?                                      
   IUNSCR =        0    unscreen: 0-lin 1-nonlin 2-no                           
   RPACOR =     .000    partial core radius                                     
   POMASS =   12.011; ZVAL   =    4.000    mass and valenz                      
   RCORE  =    1.500    outmost cutoff radius                                   
   RWIGS  =    1.630; RWIGS  =     .863    wigner-seitz radius (au A)           
   ENMAX  =  400.000; ENMIN  =  300.000 eV                                      
   ICORE  =        2    local potential                                         
   LCOR   =        T    correct aug charges                                     
   LPAW   =        T    paw PP                                                  
   EAUG   =  644.873                                                            
   DEXC   =     .000                                                            
   RMAX   =    2.266    core radius for proj-oper                               
   RAUG   =    1.300    factor for augmentation sphere                          
   RDEP   =    1.501    radius for radial grids                                 
   RDEPT  =    1.300    core radius for aug-charge                              
   QCUT   =   -5.516; QGAM   =   11.032    optimization parameters              
                                                                                
   Description                                                                  
     l     E      TYP  RCUT    TYP  RCUT                                        
     0   .000     23  1.200                                                     
     0   .000     23  1.200                                                     
     1   .000     23  1.500                                                     
     1  2.500     23  1.500                                                     
     2   .000      7  1.500                                                     
  local pseudopotential read in
  atomic valenz-charges read in
  non local Contribution for L=           0  read in
    real space projection operators read in
  non local Contribution for L=           0  read in
    real space projection operators read in
  non local Contribution for L=           1  read in
    real space projection operators read in
  non local Contribution for L=           1  read in
    real space projection operators read in
    PAW grid and wavefunctions read in
 
   number of l-projection  operators is LMAX  =           4
   number of lm-projection operators is LMMAX =           8
 

 ----------------------------------------------------------------------------- 
|                                                                             |
|  ADVICE TO THIS USER RUNNING 'VASP/VAMP'   (HEAR YOUR MASTER'S VOICE ...):  |
|                                                                             |
|      You have a (more or less) 'small supercell' and for smaller cells      |
|      it is recommended  to use the reciprocal-space projection scheme!      |
|      The real space optimization is not  efficient for small cells and it   |
|      is also less accurate ...                                              |
|      Therefore set LREAL=.FALSE. in the  INCAR file                         |
|                                                                             |
 ----------------------------------------------------------------------------- 

 Optimization of the real space projectors (new method)

 maximal supplied QI-value         = 25.13
 optimisation between [QCUT,QGAM] = [ 10.05, 20.36] = [ 28.30,116.06] Ry 
 Optimized for a Real-space Cutoff    1.30 Angstroem

   l    n(q)    QCUT    max X(q) W(low)/X(q) W(high)/X(q)  e(spline) 
   0      8    10.053     5.582    0.43E-04    0.44E-04    0.61E-07
   0      8    10.053    69.432    0.49E-03    0.71E-03    0.18E-06
   1      7    10.053     2.780    0.78E-04    0.13E-03    0.11E-06
   1      7    10.053     4.549    0.23E-03    0.19E-03    0.20E-06
 PAW_PBE C 08Apr2002                    :
 energy of atom  1       EATOM= -147.1560
 kinetic energy error for atom=    0.0288 (will be added to EATOM!!)
 
 
 POSCAR: OUTCAR.0003.+1.out 1.0e-02              
  positions in cartesian coordinates
  No initial velocities read in
 exchange correlation table for  LEXCH =        8
   RHO(1)=    0.500       N(1)  =     2000
   RHO(2)=  100.500       N(2)  =     4000
 


--------------------------------------------------------------------------------------------------------


 ion  position               nearest neighbor table
   1  0.999  0.997  0.141-   2 1.43   2 1.43   2 1.43
   2  0.333  0.664  0.141-   1 1.43   1 1.43   1 1.43
 

IMPORTANT INFORMATION: All symmetrisations will be switched off!
NOSYMM: (Re-)initialisation of all symmetry stuff for point group C_1.

 
 
 KPOINTS: K-Points                                

Automatic generation of k-mesh.
Space group operators:
 irot       det(A)        alpha          n_x          n_y          n_z        tau_x        tau_y        tau_z
    1     1.000000     0.000000     1.000000     0.000000     0.000000     0.000000     0.000000     0.000000
 
 Subroutine IBZKPT returns following result:
 ===========================================
 
 Found      5 irreducible k-points:
 
 Following reciprocal coordinates:
            Coordinates               Weight
  0.000000  0.000000  0.000000      1.000000
  0.333333  0.000000  0.000000      2.000000
  0.000000  0.333333  0.000000      2.000000
  0.333333  0.333333  0.000000      2.000000
 -0.333333  0.333333  0.000000      2.000000
 
 Following cartesian coordinates:
            Coordinates               Weight
  0.000000  0.000000  0.000000      1.000000
  0.134303  0.077540 -0.000000      2.000000
  0.000000  0.155080 -0.000000      2.000000
  0.134303  0.232620 -0.000000      2.000000
 -0.134303  0.077540  0.000000      2.000000
 
 
 Subroutine IBZKPT_HF returns following result:
 ==============================================
 
 Found      9 k-points in 1st BZ
 the following      9 k-points will be used (e.g. in the exchange kernel)
 Following reciprocal coordinates:   # in IRBZ
  0.000000  0.000000  0.000000    0.11111111   1 t-inv F
  0.333333  0.000000  0.000000    0.11111111   2 t-inv F
  0.000000  0.333333  0.000000    0.11111111   3 t-inv F
  0.333333  0.333333  0.000000    0.11111111   4 t-inv F
 -0.333333  0.333333  0.000000    0.11111111   5 t-inv F
 -0.333333 -0.000000 -0.000000    0.11111111   2 t-inv T
  0.000000 -0.333333 -0.000000    0.11111111   3 t-inv T
 -0.333333 -0.333333 -0.000000    0.11111111   4 t-inv T
  0.333333 -0.333333  0.000000    0.11111111   5 t-inv T


--------------------------------------------------------------------------------------------------------




 Dimension of arrays:
   k-points           NKPTS =      5   k-points in BZ     NKDIM =      5   number of bands    NBANDS=     14
   number of dos      NEDOS =    301   number of ions     NIONS =      2
   non local maximal  LDIM  =      4   non local SUM 2l+1 LMDIM =      8
   total plane-waves  NPLWV =   8640
   max r-space proj   IRMAX =   1295   max aug-charges    IRDMAX=  12939
   dimension x,y,z NGX =    12 NGY =   12 NGZ =   60
   dimension x,y,z NGXF=    24 NGYF=   24 NGZF=  120
   support grid    NGXF=    48 NGYF=   48 NGZF=  240
   ions per type =               2
   NGX,Y,Z   is equivalent  to a cutoff of   8.04,  8.04,  8.31 a.u.
   NGXF,Y,Z  is equivalent  to a cutoff of  16.08, 16.08, 16.62 a.u.

 SYSTEM =  raman                                   
 POSCAR =  OUTCAR.0003.+1.out 1.0e-02              

 Startparameter for this run:
   NWRITE =      3    write-flag & timer
   PREC   = n         normal or accurate (medium, high low for compatibility)
   ISTART =      0    job   : 0-new  1-cont  2-samecut
   ICHARG =      2    charge: 1-file 2-atom 10-const
   ISPIN  =      1    spin polarized calculation?
   LNONCOLLINEAR =      F non collinear calculations
   LSORBIT =      F    spin-orbit coupling
   INIWAV =      1    electr: 0-lowe 1-rand  2-diag
   LASPH  =      F    aspherical Exc in radial PAW
   METAGGA=      F    non-selfconsistent MetaGGA calc.

 Electronic Relaxation 1
   ENCUT  =  400.0 eV  29.40 Ry    5.42 a.u.   4.05  4.05 19.57*2*pi/ulx,y,z
   ENINI  =  400.0     initial cutoff
   ENAUG  =  644.9 eV  augmentation charge cutoff
   NELM   =     60;   NELMIN=  4; NELMDL= -5     # of ELM steps 
   EDIFF  = 0.1E-03   stopping-criterion for ELM
   LREAL  =      T    real-space projection
   NLSPLINE    = F    spline interpolate recip. space projectors
   LCOMPAT=      F    compatible to vasp.4.4
   GGA_COMPAT  = T    GGA compatible to vasp.4.4-vasp.4.6
   LMAXPAW     = -100 max onsite density
   LMAXMIX     =    2 max onsite mixed and CHGCAR
   VOSKOWN=      0    Vosko Wilk Nusair interpolation
   ROPT   =   -0.00050
 Ionic relaxation
   EDIFFG = 0.1E-02   stopping-criterion for IOM
   NSW    =      0    number of steps for IOM
   NBLOCK =      1;   KBLOCK =      1    inner block; outer block 
   IBRION =     -1    ionic relax: 0-MD 1-quasi-New 2-CG
   NFREE  =      0    steps in history (QN), initial steepest desc. (CG)
   ISIF   =      2    stress and relaxation
   IWAVPR =     10    prediction:  0-non 1-charg 2-wave 3-comb
   ISYM   =      0    0-nonsym 1-usesym 2-fastsym
   LCORR  =      T    Harris-Foulkes like correction to forces

   POTIM  = 0.5000    time-step for ionic-motion
   TEIN   =    0.0    initial temperature
   TEBEG  =    0.0;   TEEND  =   0.0 temperature during run
   SMASS  =  -3.00    Nose mass-parameter (am)
   estimated Nose-frequenzy (Omega)   =  0.10E-29 period in steps =****** mass=  -0.141E-27a.u.
   SCALEE = 1.0000    scale energy and forces
   NPACO  =    256;   APACO  = 16.0  distance and # of slots for P.C.
   PSTRESS=    0.0 pullay stress

  Mass of Ions in am
   POMASS =  12.01
  Ionic Valenz
   ZVAL   =   4.00
  Atomic Wigner-Seitz radii
   RWIGS  =  -1.00
  virtual crystal weights 
   VCA    =   1.00
   NELECT =       8.0000    total number of electrons
   NUPDOWN=      -1.0000    fix difference up-down

 DOS related values:
   EMIN   =  10.00;   EMAX   =-10.00  energy-range for DOS
   EFERMI =   0.00
   ISMEAR =     1;   SIGMA  =   0.20  broadening in eV -4-tet -1-fermi 0-gaus

 Electronic relaxation 2 (details)
   IALGO  =     38    algorithm
   LDIAG  =      T    sub-space diagonalisation (order eigenvalues)
   LSUBROT=      F    optimize rotation matrix (better conditioning)
   TURBO    =      0    0=normal 1=particle mesh
   IRESTART =      0    0=no restart 2=restart with 2 vectors
   NREBOOT  =      0    no. of reboots
   NMIN     =      0    reboot dimension
   EREF     =   0.00    reference energy to select bands
   IMIX   =      4    mixing-type and parameters
     AMIX     =   0.40;   BMIX     =  1.00
     AMIX_MAG =   1.60;   BMIX_MAG =  1.00
     AMIN     =   0.10
     WC   =   100.;   INIMIX=   1;  MIXPRE=   1;  MAXMIX= -45

 Intra band minimization:
   WEIMIN = 0.0000     energy-eigenvalue tresh-hold
   EBREAK =  0.18E-05  absolut break condition
   DEPER  =   0.30     relativ break condition  

   TIME   =   0.40     timestep for ELM

  volume/ion in A,a.u.               =      32.01       216.01
  Fermi-wavevector in a.u.,A,eV,Ry     =   0.818475  1.546694  9.114571  0.669902
  Thomas-Fermi vector in A             =   1.929109
 
 Write flags
   LWAVE        =      F    write WAVECAR
   LDOWNSAMPLE  =      F    k-point downsampling of WAVECAR
   LCHARG       =      F    write CHGCAR
   LVTOT        =      F    write LOCPOT, total local potential
   LVHAR        =      F    write LOCPOT, Hartree potential only
   LELF         =      F    write electronic localiz. function (ELF)
   LORBIT       =      0    0 simple, 1 ext, 2 COOP (PROOUT), +10 PAW based schemes


 Dipole corrections
   LMONO  =      F    monopole corrections only (constant potential shift)
   LDIPOL =      F    correct potential (dipole corrections)
   IDIPOL =      0    1-x, 2-y, 3-z, 4-all directions 
   EPSILON=  1.0000000 bulk dielectric constant

 Exchange correlation treatment:
   GGA     =    --    GGA type
   LEXCH   =     8    internal setting for exchange type
   VOSKOWN=      0    Vosko Wilk Nusair interpolation
   LHFCALC =     F    Hartree Fock is set to
   LHFONE  =     F    Hartree Fock one center treatment
   AEXX    =    0.0000 exact exchange contribution

 Linear response parameters
   LEPSILON=     T    determine dielectric tensor
   LRPA    =     F    only Hartree local field effects (RPA)
   LNABLA  =     F    use nabla operator in PAW spheres
   LVEL    =     F    velocity operator in full k-point grid
   LINTERFAST=   F  fast interpolation
   KINTER  =     0    interpolate to denser k-point grid
   CSHIFT  =0.1000    complex shift for real part using Kramers Kronig
   OMEGAMAX=  -1.0    maximum frequency
   DEG_THRESHOLD= 0.2000000E-02 threshold for treating states as degnerate
   RTIME   =   -0.100 relaxation time in fs
  (WPLASMAI=    0.000 imaginary part of plasma frequency in eV, 0.658/RTIME)
   DFIELD  = 0.0000000 0.0000000 0.0000000 field for delta impulse in time
 
 Orbital magnetization related:
   ORBITALMAG=     F  switch on orbital magnetization
   LCHIMAG   =     F  perturbation theory with respect to B field
   DQ        =  0.001000  dq finite difference perturbation B field
   LLRAUG    =     F  two centre corrections for induced B field



--------------------------------------------------------------------------------------------------------


 Static calculation
 charge density and potential will be updated during run
 non-spin polarized calculation
 Variant of blocked Davidson
 Davidson routine will perform the subspace rotation
 perform sub-space diagonalisation
    after iterative eigenvector-optimisation
 modified Broyden-mixing scheme, WC =      100.0
 initial mixing is a Kerker type mixing with AMIX =  0.4000 and BMIX =      1.0000
 Hartree-type preconditioning will be used
 using additional bands           10
 real space projection scheme for non local part
 calculate Harris-corrections to forces 
   (improved forces if not selfconsistent)
 use gradient corrections 
 use of overlap-Matrix (Vanderbilt PP)
 Methfessel and Paxton  Order N= 1 SIGMA  =   0.20


--------------------------------------------------------------------------------------------------------


  energy-cutoff  :      400.00
  volume of cell :       64.02
      direct lattice vectors                 reciprocal lattice vectors
     2.481948769  0.000000000  0.000000000     0.402909203  0.232619737 -0.000000000
    -1.240974385  2.149430685  0.000000000     0.000000000  0.465239473 -0.000000000
     0.000000000  0.000000000 12.000000000     0.000000000  0.000000000  0.083333333

  length of vectors
     2.481948769  2.481948769 12.000000000     0.465239473  0.465239473  0.083333333


 
 k-points in units of 2pi/SCALE and weight: K-Points                                
   0.00000000  0.00000000  0.00000000       0.111
   0.13430307  0.07753991 -0.00000000       0.222
   0.00000000  0.15507982 -0.00000000       0.222
   0.13430307  0.23261974 -0.00000000       0.222
  -0.13430307  0.07753991  0.00000000       0.222
 
 k-points in reciprocal lattice and weights: K-Points                                
   0.00000000  0.00000000  0.00000000       0.111
   0.33333333  0.00000000  0.00000000       0.222
   0.00000000  0.33333333  0.00000000       0.222
   0.33333333  0.33333333  0.00000000       0.222
  -0.33333333  0.33333333  0.00000000       0.222
 
 position of ions in fractional coordinates (direct lattice) 
   0.99945689  0.99708695  0.14147094
   0.33278919  0.66376094  0.14147091
 
 position of ions in cartesian coordinates  (Angst):
   1.24324143  2.14316929  1.69765125
   0.00225538  1.42670814  1.69765094
 


--------------------------------------------------------------------------------------------------------


 k-point  1 :   0.0000 0.0000 0.0000  plane waves:    1125
 k-point  2 :   0.3333 0.0000 0.0000  plane waves:    1167
 k-point  3 :   0.0000 0.3333 0.0000  plane waves:    1167
 k-point  4 :   0.3333 0.3333 0.0000  plane waves:    1146
 k-point  5 :  -0.3333 0.3333 0.0000  plane waves:    1167

 maximum and minimum number of plane-waves per node :      1167     1125

 maximum number of plane-waves:      1167
 maximum index in each direction: 
   IXMAX=    4   IYMAX=    4   IZMAX=   19
   IXMIN=   -4   IYMIN=   -4   IZMIN=  -19


 serial   3D FFT for wavefunctions
 parallel 3D FFT for charge:
    minimum data exchange during FFTs selected (reduces bandwidth)


 total amount of memory used by VASP MPI-rank0    32837. kBytes
=======================================================================

   base      :      30000. kBytes
   nonlr-proj:        208. kBytes
   fftplans  :       1526. kBytes
   grid      :        907. kBytes
   one-center:          6. kBytes
   wavefun   :        190. kBytes
 
     INWAV:  cpu time    0.0000: real time    0.0002
 Broyden mixing: mesh for mixing (old mesh)
   NGX =  9   NGY =  9   NGZ = 39
  (NGX  = 24   NGY  = 24   NGZ  =120)
  gives a total of   3159 points

 initial charge density was supplied:
 charge density of overlapping atoms calculated
 number of electron       8.0000000 magnetization 
 keeping initial charge density in first step


--------------------------------------------------------------------------------------------------------


 Maximum index for non-local projection operator         1193
 Maximum index for augmentation-charges         1866 (set IRDMAX)


--------------------------------------------------------------------------------------------------------


 First call to EWALD:  gamma=   0.443
 Maximum number of real-space cells 5x 5x 1
 Maximum number of reciprocal cells 2x 2x 7

    FEWALD:  cpu time    0.0010: real time    0.0011


----------------------------------------- Iteration    1(   1)  ---------------------------------------


    POTLOK:  cpu time    0.0080: real time    0.0082
    SETDIJ:  cpu time    0.0040: real time    0.0037
     EDDAV:  cpu time    0.1380: real time    0.3005
       DOS:  cpu time    0.0000: real time    0.0006
    --------------------------------------------
      LOOP:  cpu time    0.1520: real time    0.3157

 eigenvalue-minimisations  :   140
 total energy-change (2. order) : 0.1321388E+02  (-0.3579170E+03)
 number of electron       8.0000000 magnetization 
 augmentation part        8.0000000 magnetization 

 Free energy of the ion-electron system (eV)
  ---------------------------------------------------
  alpha Z        PSCENC =         5.09113229
  Ewald energy   TEWEN  =       551.13459492
  -Hartree energ DENC   =      -777.05864006
  -exchange      EXHF   =         0.00000000
  -V(xc)+E(xc)   XCENC  =        27.46714400
  PAW double counting   =        75.66288619      -77.96384553
  entropy T*S    EENTRO =        -0.00997513
  eigenvalues    EBANDS =       -85.36386915
  atomic energy  EATOM  =       294.25444774
  Solvation  Ediel_sol  =         0.00000000
  ---------------------------------------------------
  free energy    TOTEN  =        13.21387527 eV

  energy without entropy =       13.22385040  energy(sigma->0) =       13.21720031


--------------------------------------------------------------------------------------------------------




 average (electrostatic) potential at core
  the test charge radii are     0.6991
  (the norm of the test charge is              1.0000)
       1 -62.8965       2 -62.8965
 
 
 
 E-fermi :   2.5879     XC(G=0):  -3.9366     alpha+bet : -3.1363


 k-point     1 :       0.0000    0.0000    0.0000
  band No.  band energies     occupation 
      1     -24.3045      2.00000
      2     -11.2482      2.00000
      3      -3.8666      2.00000
      4       1.2693      2.00000
      5       2.4707      1.82749
      6       2.9428     -0.03086
      7       3.8730     -0.00000
      8       6.9229     -0.00000
      9       8.2310      0.00000
     10      11.0947      0.00000
     11      13.9950      0.00000
     12      15.8033      0.00000
     13      20.7404      0.00000
     14      21.7112      0.00000

 k-point     2 :       0.3333    0.0000    0.0000
  band No.  band energies     occupation 
      1     -21.8304      2.00000
      2     -11.5720      2.00000
      3      -7.4234      2.00000
      4      -5.5187      2.00000
      5       5.1525     -0.00000
      6       6.6377     -0.00000
      7       7.5092     -0.00000
      8      10.0360      0.00000
      9      11.7240      0.00000
     10      13.7761      0.00000
     11      16.8912      0.00000
     12      17.8804      0.00000
     13      20.7436      0.00000
     14      25.0542      0.00000

 k-point     3 :       0.0000    0.3333    0.0000
  band No.  band energies     occupation 
      1     -21.8346      2.00000
      2     -10.4013      2.00000
      3      -7.6408      2.00000
      4      -3.3049      2.00000
      5       5.2288     -0.00000
      6       6.4820     -0.00000
      7       7.4896     -0.00000
      8      10.0168      0.00000
      9      11.7638      0.00000
     10      13.4308      0.00000
     11      16.3290      0.00000
     12      18.3893      0.00000
     13      18.9373      0.00000
     14      20.2749      0.00000

 k-point     4 :       0.3333    0.3333    0.0000
  band No.  band energies     occupation 
      1     -16.7348      2.00000
      2     -14.8512      2.00000
      3     -13.0276      2.00000
      4       0.0480      2.00000
      5       2.9604     -0.02429
      6      12.2723      0.00000
      7      13.1376      0.00000
      8      13.5787      0.00000
      9      14.2740      0.00000
     10      14.8824      0.00000
     11      16.2127      0.00000
     12      17.6119      0.00000
     13      19.4823      0.00000
     14      21.2796      0.00000

 k-point     5 :      -0.3333    0.3333    0.0000
  band No.  band energies     occupation 
      1     -21.6766      2.00000
      2     -12.5665      2.00000
      3      -7.1777      2.00000
      4       2.5730      1.12598
      5       5.2774     -0.00000
      6       7.1567     -0.00000
      7       7.8836     -0.00000
      8       9.4349      0.00000
      9      12.1369      0.00000
     10      15.3734      0.00000
     11      17.8555      0.00000
     12      19.4794      0.00000
     13      21.9747      0.00000
     14      22.2099      0.00000


--------------------------------------------------------------------------------------------------------


 soft charge-density along one line, spin component           1
         0         1         2         3         4         5         6         7         8         9
 total charge-density along one line
 
 pseudopotential strength for first ion, spin component:           1
 10.479   0.027  -0.000  -0.000   0.000   0.000   0.000  -0.000
  0.027  -0.001   0.000   0.000  -0.000   0.000   0.000  -0.000
 -0.000   0.000  -4.631  -0.000   0.000  -0.003  -0.000   0.000
 -0.000   0.000  -0.000  -4.598   0.000  -0.000   0.002   0.000
  0.000  -0.000   0.000   0.000  -4.631   0.000   0.000  -0.003
  0.000   0.000  -0.003  -0.000   0.000  -0.776  -0.000   0.000
  0.000   0.000  -0.000   0.002   0.000  -0.000  -0.775   0.000
 -0.000  -0.000   0.000   0.000  -0.003   0.000   0.000  -0.776
 total augmentation occupancy for first ion, spin component:           1
  2.000   0.000   0.000   0.000   0.000   0.000   0.000   0.000
  0.000   0.000   0.000   0.000   0.000   0.000   0.000   0.000
  0.000   0.000   0.667   0.000   0.000   0.000   0.000   0.000
  0.000   0.000   0.000   0.667   0.000   0.000   0.000   0.000
  0.000   0.000   0.000   0.000   0.667   0.000   0.000   0.000
  0.000   0.000   0.000   0.000   0.000   0.000   0.000   0.000
  0.000   0.000   0.000   0.000   0.000   0.000   0.000   0.000
  0.000   0.000   0.000   0.000   0.000   0.000   0.000   0.000


----------------------------------------- Iteration    1(   2)  ---------------------------------------


     EDDAV:  cpu time    0.1810: real time    0.3327
       DOS:  cpu time    0.0020: real time    0.0019
    --------------------------------------------
      LOOP:  cpu time    0.1840: real time    0.3365

 eigenvalue-minimisations  :   224
 total energy-change (2. order) :-0.3199143E+02  (-0.2991307E+02)
 number of electron       8.0000000 magnetization 
 augmentation part        8.0000000 magnetization 

 Free energy of the ion-electron system (eV)
  ---------------------------------------------------
  alpha Z        PSCENC =         5.09113229
  Ewald energy   TEWEN  =       551.13459492
  -Hartree energ DENC   =      -777.05864006
  -exchange      EXHF   =         0.00000000
  -V(xc)+E(xc)   XCENC  =        27.46714400
  PAW double counting   =        75.66288619      -77.96384553
  entropy T*S    EENTRO =        -0.02271945
  eigenvalues    EBANDS =      -117.34255135
  atomic energy  EATOM  =       294.25444774
  Solvation  Ediel_sol  =         0.00000000
  ---------------------------------------------------
  free energy    TOTEN  =       -18.77755125 eV

  energy without entropy =      -18.75483180  energy(sigma->0) =      -18.76997810


--------------------------------------------------------------------------------------------------------




 average (electrostatic) potential at core
  the test charge radii are     0.6991
  (the norm of the test charge is              1.0000)
       1 -62.8965       2 -62.8965
 
 
 
 E-fermi :  -4.9236     XC(G=0):  -3.9366     alpha+bet : -3.1363


 k-point     1 :       0.0000    0.0000    0.0000
  band No.  band energies     occupation 
      1     -25.0215      2.00000
      2     -12.1680      2.00000
      3      -9.4488      2.00000
      4      -9.2929      2.00000
      5       1.2683      0.00000
      6       2.4785      0.00000
      7       2.5664      0.00000
      8       2.6004      0.00000
      9       3.6389      0.00000
     10       5.8876      0.00000
     11       6.4845      0.00000
     12       6.5384      0.00000
     13       7.7091      0.00000
     14      12.5821      0.00000

 k-point     2 :       0.3333    0.0000    0.0000
  band No.  band energies     occupation 
      1     -22.5548      2.00000
      2     -15.5821      2.00000
      3     -11.9913      2.00000
      4      -9.3270      2.00000
      5      -0.1753     -0.00000
      6       2.0358      0.00000
      7       4.7287      0.00000
      8       6.0469      0.00000
      9       7.1863      0.00000
     10       9.7211      0.00000
     11      10.0273      0.00000
     12      10.6003      0.00000
     13      11.1641      0.00000
     14      13.8344      0.00000

 k-point     3 :       0.0000    0.3333    0.0000
  band No.  band energies     occupation 
      1     -22.5551      2.00000
      2     -15.5717      2.00000
      3     -11.9887      2.00000
      4      -9.3275      2.00000
      5      -0.1521     -0.00000
      6       2.0642      0.00000
      7       4.7294      0.00000
      8       6.0435      0.00000
      9       7.1874      0.00000
     10       9.7260      0.00000
     11       9.9001      0.00000
     12      10.5706      0.00000
     13      11.1811      0.00000
     14      13.7927      0.00000

 k-point     4 :       0.3333    0.3333    0.0000
  band No.  band energies     occupation 
      1     -18.4590      2.00000
      2     -18.4312      2.00000
      3     -16.2966      2.00000
      4      -4.9595      1.29820
      5      -4.8877      0.70180
      6       7.3183      0.00000
      7       8.3154      0.00000
      8       9.4354      0.00000
      9      10.3504      0.00000
     10      12.6042      0.00000
     11      12.9941      0.00000
     12      13.3724      0.00000
     13      13.4585      0.00000
     14      14.3315      0.00000

 k-point     5 :      -0.3333    0.3333    0.0000
  band No.  band energies     occupation 
      1     -22.5407      2.00000
      2     -15.5395      2.00000
      3     -11.6811      2.00000
      4      -9.2746      2.00000
      5       0.2050     -0.00000
      6       2.7643      0.00000
      7       4.7477      0.00000
      8       6.1276      0.00000
      9       7.2190      0.00000
     10       9.8608      0.00000
     11      11.2708      0.00000
     12      14.0843      0.00000
     13      15.0942      0.00000
     14      16.7744      0.00000


--------------------------------------------------------------------------------------------------------


 soft charge-density along one line, spin component           1
         0         1         2         3         4         5         6         7         8         9
 total charge-density along one line
 
 pseudopotential strength for first ion, spin component:           1
 10.479   0.027  -0.000  -0.000   0.000   0.000   0.000  -0.000
  0.027  -0.001   0.000   0.000  -0.000   0.000   0.000  -0.000
 -0.000   0.000  -4.631  -0.000   0.000  -0.003  -0.000   0.000
 -0.000   0.000  -0.000  -4.598   0.000  -0.000   0.002   0.000
  0.000  -0.000   0.000   0.000  -4.631   0.000   0.000  -0.003
  0.000   0.000  -0.003  -0.000   0.000  -0.776  -0.000   0.000
  0.000   0.000  -0.000   0.002   0.000  -0.000  -0.775   0.000
 -0.000  -0.000   0.000   0.000  -0.003   0.000   0.000  -0.776
 total augmentation occupancy for first ion, spin component:           1
  2.000   0.000   0.000   0.000   0.000   0.000   0.000   0.000
  0.000   0.000   0.000   0.000   0.000   0.000   0.000   0.000
  0.000   0.000   0.667   0.000   0.000   0.000   0.000   0.000
  0.000   0.000   0.000   0.667   0.000   0.000   0.000   0.000
  0.000   0.000   0.000   0.000   0.667   0.000   0.000   0.000
  0.000   0.000   0.000   0.000   0.000   0.000   0.000   0.000
  0.000   0.000   0.000   0.000   0.000   0.000   0.000   0.000
  0.000   0.000   0.000   0.000   0.000   0.000   0.000   0.000


----------------------------------------- Iteration    1(   3)  ---------------------------------------


     EDDAV:  cpu time    0.1660: real time    0.3075
       DOS:  cpu time    0.0020: real time    0.0018
    --------------------------------------------
      LOOP:  cpu time    0.1690: real time    0.3114

 eigenvalue-minimisations  :   182
 total energy-change (2. order) :-0.3695122E+00  (-0.3671767E+00)
 number of electron       8.0000000 magnetization 
 augmentation part        8.0000000 magnetization 

 Free energy of the ion-electron system (eV)
  ---------------------------------------------------
  alpha Z        PSCENC =         5.09113229
  Ewald energy   TEWEN  =       551.13459492
  -Hartree energ DENC   =      -777.05864006
  -exchange      EXHF   =         0.00000000
  -V(xc)+E(xc)   XCENC  =        27.46714400
  PAW double counting   =        75.66288619      -77.96384553
  entropy T*S    EENTRO =        -0.02507505
  eigenvalues    EBANDS =      -117.70970799
  atomic energy  EATOM  =       294.25444774
  Solvation  Ediel_sol  =         0.00000000
  ---------------------------------------------------
  free energy    TOTEN  =       -19.14706349 eV

  energy without entropy =      -19.12198844  energy(sigma->0) =      -19.13870514


--------------------------------------------------------------------------------------------------------




 average (electrostatic) potential at core
  the test charge radii are     0.6991
  (the norm of the test charge is              1.0000)
       1 -62.8965       2 -62.8965
 
 
 
 E-fermi :  -4.9992     XC(G=0):  -3.9366     alpha+bet : -3.1363


 k-point     1 :       0.0000    0.0000    0.0000
  band No.  band energies     occupation 
      1     -25.0240      2.00000
      2     -12.1735      2.00000
      3      -9.4708      2.00000
      4      -9.4692      2.00000
      5       1.2661      0.00000
      6       2.3017      0.00000
      7       2.3024      0.00000
      8       2.5879      0.00000
      9       3.6368      0.00000
     10       5.5867      0.00000
     11       6.3324      0.00000
     12       6.4851      0.00000
     13       7.7015      0.00000
     14      12.5211      0.00000

 k-point     2 :       0.3333    0.0000    0.0000
  band No.  band energies     occupation 
      1     -22.5561      2.00000
      2     -15.5969      2.00000
      3     -12.0157      2.00000
      4      -9.3351      2.00000
      5      -0.2587     -0.00000
      6       1.9554      0.00000
      7       4.7244      0.00000
      8       6.0322      0.00000
      9       7.1839      0.00000
     10       9.7031      0.00000
     11       9.7607      0.00000
     12      10.4115      0.00000
     13      11.1443      0.00000
     14      13.7348      0.00000

 k-point     3 :       0.0000    0.3333    0.0000
  band No.  band energies     occupation 
      1     -22.5561      2.00000
      2     -15.5968      2.00000
      3     -12.0158      2.00000
      4      -9.3351      2.00000
      5      -0.2585     -0.00000
      6       1.9562      0.00000
      7       4.7244      0.00000
      8       6.0322      0.00000
      9       7.1839      0.00000
     10       9.7033      0.00000
     11       9.7580      0.00000
     12      10.4114      0.00000
     13      11.1450      0.00000
     14      13.7349      0.00000

 k-point     4 :       0.3333    0.3333    0.0000
  band No.  band energies     occupation 
      1     -18.4713      2.00000
      2     -18.4710      2.00000
      3     -16.3256      2.00000
      4      -4.9993      1.00129
      5      -4.9990      0.99871
      6       7.2129      0.00000
      7       7.9325      0.00000
      8       7.9543      0.00000
      9       9.8780      0.00000
     10      12.4770      0.00000
     11      12.5350      0.00000
     12      13.1471      0.00000
     13      13.1757      0.00000
     14      13.6476      0.00000

 k-point     5 :      -0.3333    0.3333    0.0000
  band No.  band energies     occupation 
      1     -22.5561      2.00000
      2     -15.5975      2.00000
      3     -12.0149      2.00000
      4      -9.3350      2.00000
      5      -0.2590     -0.00000
      6       1.9553      0.00000
      7       4.7244      0.00000
      8       6.0322      0.00000
      9       7.1840      0.00000
     10       9.7035      0.00000
     11       9.8454      0.00000
     12      10.4346      0.00000
     13      11.1461      0.00000
     14      13.7547      0.00000


--------------------------------------------------------------------------------------------------------


 soft charge-density along one line, spin component           1
         0         1         2         3         4         5         6         7         8         9
 total charge-density along one line
 
 pseudopotential strength for first ion, spin component:           1
 10.479   0.027  -0.000  -0.000   0.000   0.000   0.000  -0.000
  0.027  -0.001   0.000   0.000  -0.000   0.000   0.000  -0.000
 -0.000   0.000  -4.631  -0.000   0.000  -0.003  -0.000   0.000
 -0.000   0.000  -0.000  -4.598   0.000  -0.000   0.002   0.000
  0.000  -0.000   0.000   0.000  -4.631   0.000   0.000  -0.003
  0.000   0.000  -0.003  -0.000   0.000  -0.776  -0.000   0.000
  0.000   0.000  -0.000   0.002   0.000  -0.000  -0.775   0.000
 -0.000  -0.000   0.000   0.000  -0.003   0.000   0.000  -0.776
 total augmentation occupancy for first ion, spin component:           1
  2.000   0.000   0.000   0.000   0.000   0.000   0.000   0.000
  0.000   0.000   0.000   0.000   0.000   0.000   0.000   0.000
  0.000   0.000   0.667   0.000   0.000   0.000   0.000   0.000
  0.000   0.000   0.000   0.667   0.000   0.000   0.000   0.000
  0.000   0.000   0.000   0.000   0.667   0.000   0.000   0.000
  0.000   0.000   0.000   0.000   0.000   0.000   0.000   0.000
  0.000   0.000   0.000   0.000   0.000   0.000   0.000   0.000
  0.000   0.000   0.000   0.000   0.000   0.000   0.000   0.000


----------------------------------------- Iteration    1(   4)  ---------------------------------------


     EDDAV:  cpu time    0.1420: real time    0.2879
       DOS:  cpu time    0.0010: real time    0.0003
    --------------------------------------------
      LOOP:  cpu time    0.1430: real time    0.2900

 eigenvalue-minimisations  :   168
 total energy-change (2. order) :-0.4120407E-03  (-0.4120410E-03)
 number of electron       8.0000000 magnetization 
 augmentation part        8.0000000 magnetization 

 Free energy of the ion-electron system (eV)
  ---------------------------------------------------
  alpha Z        PSCENC =         5.09113229
  Ewald energy   TEWEN  =       551.13459492
  -Hartree energ DENC   =      -777.05864006
  -exchange      EXHF   =         0.00000000
  -V(xc)+E(xc)   XCENC  =        27.46714400
  PAW double counting   =        75.66288619      -77.96384553
  entropy T*S    EENTRO =        -0.02507505
  eigenvalues    EBANDS =      -117.71012003
  atomic energy  EATOM  =       294.25444774
  Solvation  Ediel_sol  =         0.00000000
  ---------------------------------------------------
  free energy    TOTEN  =       -19.14747553 eV

  energy without entropy =      -19.12240048  energy(sigma->0) =      -19.13911718


--------------------------------------------------------------------------------------------------------




 average (electrostatic) potential at core
  the test charge radii are     0.6991
  (the norm of the test charge is              1.0000)
       1 -62.8965       2 -62.8965
 
 
 
 E-fermi :  -4.9992     XC(G=0):  -3.9366     alpha+bet : -3.1363


 k-point     1 :       0.0000    0.0000    0.0000
  band No.  band energies     occupation 
      1     -25.0240      2.00000
      2     -12.1735      2.00000
      3      -9.4710      2.00000
      4      -9.4695      2.00000
      5       1.2661      0.00000
      6       2.3003      0.00000
      7       2.3009      0.00000
      8       2.5878      0.00000
      9       3.6368      0.00000
     10       5.5836      0.00000
     11       6.3313      0.00000
     12       6.4850      0.00000
     13       7.7015      0.00000
     14      12.5201      0.00000

 k-point     2 :       0.3333    0.0000    0.0000
  band No.  band energies     occupation 
      1     -22.5561      2.00000
      2     -15.5970      2.00000
      3     -12.0158      2.00000
      4      -9.3351      2.00000
      5      -0.2590     -0.00000
      6       1.9550      0.00000
      7       4.7243      0.00000
      8       6.0321      0.00000
      9       7.1839      0.00000
     10       9.7029      0.00000
     11       9.7533      0.00000
     12      10.4079      0.00000
     13      11.1441      0.00000
     14      13.7318      0.00000

 k-point     3 :       0.0000    0.3333    0.0000
  band No.  band energies     occupation 
      1     -22.5561      2.00000
      2     -15.5969      2.00000
      3     -12.0159      2.00000
      4      -9.3351      2.00000
      5      -0.2589     -0.00000
      6       1.9550      0.00000
      7       4.7243      0.00000
      8       6.0321      0.00000
      9       7.1839      0.00000
     10       9.7029      0.00000
     11       9.7529      0.00000
     12      10.4075      0.00000
     13      11.1441      0.00000
     14      13.7315      0.00000

 k-point     4 :       0.3333    0.3333    0.0000
  band No.  band energies     occupation 
      1     -18.4713      2.00000
      2     -18.4710      2.00000
      3     -16.3256      2.00000
      4      -4.9994      1.00124
      5      -4.9991      0.99876
      6       7.2126      0.00000
      7       7.9307      0.00000
      8       7.9311      0.00000
      9       9.8704      0.00000
     10      12.4736      0.00000
     11      12.4754      0.00000
     12      13.1376      0.00000
     13      13.1402      0.00000
     14      13.5239      0.00000

 k-point     5 :      -0.3333    0.3333    0.0000
  band No.  band energies     occupation 
      1     -22.5561      2.00000
      2     -15.5975      2.00000
      3     -12.0150      2.00000
      4      -9.3351      2.00000
      5      -0.2592     -0.00000
      6       1.9548      0.00000
      7       4.7243      0.00000
      8       6.0321      0.00000
      9       7.1838      0.00000
     10       9.7029      0.00000
     11       9.7553      0.00000
     12      10.4066      0.00000
     13      11.1440      0.00000
     14      13.7329      0.00000


--------------------------------------------------------------------------------------------------------


 soft charge-density along one line, spin component           1
         0         1         2         3         4         5         6         7         8         9
 total charge-density along one line
 
 pseudopotential strength for first ion, spin component:           1
 10.479   0.027  -0.000  -0.000   0.000   0.000   0.000  -0.000
  0.027  -0.001   0.000   0.000  -0.000   0.000   0.000  -0.000
 -0.000   0.000  -4.631  -0.000   0.000  -0.003  -0.000   0.000
 -0.000   0.000  -0.000  -4.598   0.000  -0.000   0.002   0.000
  0.000  -0.000   0.000   0.000  -4.631   0.000   0.000  -0.003
  0.000   0.000  -0.003  -0.000   0.000  -0.776  -0.000   0.000
  0.000   0.000  -0.000   0.002   0.000  -0.000  -0.775   0.000
 -0.000  -0.000   0.000   0.000  -0.003   0.000   0.000  -0.776
 total augmentation occupancy for first ion, spin component:           1
  2.000   0.000   0.000   0.000   0.000   0.000   0.000   0.000
  0.000   0.000   0.000   0.000   0.000   0.000   0.000   0.000
  0.000   0.000   0.667   0.000   0.000   0.000   0.000   0.000
  0.000   0.000   0.000   0.667   0.000   0.000   0.000   0.000
  0.000   0.000   0.000   0.000   0.667   0.000   0.000   0.000
  0.000   0.000   0.000   0.000   0.000   0.000   0.000   0.000
  0.000   0.000   0.000   0.000   0.000   0.000   0.000   0.000
  0.000   0.000   0.000   0.000   0.000   0.000   0.000   0.000


----------------------------------------- Iteration    1(   5)  ---------------------------------------


     EDDAV:  cpu time    0.3609: real time    0.5136
       DOS:  cpu time    0.0020: real time    0.0011
    CHARGE:  cpu time    0.0070: real time    0.0186
    MIXING:  cpu time    0.0010: real time    0.0006
    --------------------------------------------
      LOOP:  cpu time    0.3709: real time    0.5366

 eigenvalue-minimisations  :   154
 total energy-change (2. order) :-0.1666866E-05  (-0.1666938E-05)
 number of electron       8.0000000 magnetization 
 augmentation part        0.2143563 magnetization 

 Broyden mixing:
  rms(total) = 0.54824E+00    rms(broyden)= 0.54817E+00
  rms(prec ) = 0.67471E+00
  weight for this iteration     100.00

 Free energy of the ion-electron system (eV)
  ---------------------------------------------------
  alpha Z        PSCENC =         5.09113229
  Ewald energy   TEWEN  =       551.13459492
  -Hartree energ DENC   =      -777.05864006
  -exchange      EXHF   =         0.00000000
  -V(xc)+E(xc)   XCENC  =        27.46714400
  PAW double counting   =        75.66288619      -77.96384553
  entropy T*S    EENTRO =        -0.02507505
  eigenvalues    EBANDS =      -117.71012169
  atomic energy  EATOM  =       294.25444774
  Solvation  Ediel_sol  =         0.00000000
  ---------------------------------------------------
  free energy    TOTEN  =       -19.14747720 eV

  energy without entropy =      -19.12240214  energy(sigma->0) =      -19.13911884


--------------------------------------------------------------------------------------------------------




 average (electrostatic) potential at core
  the test charge radii are     0.6991
  (the norm of the test charge is              1.0000)
       1 -62.8965       2 -62.8965
 
 
 
 E-fermi :  -4.9992     XC(G=0):  -3.9366     alpha+bet : -3.1363


 k-point     1 :       0.0000    0.0000    0.0000
  band No.  band energies     occupation 
      1     -25.0240      2.00000
      2     -12.1735      2.00000
      3      -9.4710      2.00000
      4      -9.4695      2.00000
      5       1.2661      0.00000
      6       2.3002      0.00000
      7       2.3009      0.00000
      8       2.5878      0.00000
      9       3.6368      0.00000
     10       5.5835      0.00000
     11       6.3313      0.00000
     12       6.4850      0.00000
     13       7.7015      0.00000
     14      12.5201      0.00000

 k-point     2 :       0.3333    0.0000    0.0000
  band No.  band energies     occupation 
      1     -22.5561      2.00000
      2     -15.5970      2.00000
      3     -12.0158      2.00000
      4      -9.3351      2.00000
      5      -0.2590     -0.00000
      6       1.9550      0.00000
      7       4.7243      0.00000
      8       6.0321      0.00000
      9       7.1839      0.00000
     10       9.7029      0.00000
     11       9.7527      0.00000
     12      10.4075      0.00000
     13      11.1441      0.00000
     14      13.7315      0.00000

 k-point     3 :       0.0000    0.3333    0.0000
  band No.  band energies     occupation 
      1     -22.5561      2.00000
      2     -15.5969      2.00000
      3     -12.0159      2.00000
      4      -9.3351      2.00000
      5      -0.2589     -0.00000
      6       1.9550      0.00000
      7       4.7243      0.00000
      8       6.0321      0.00000
      9       7.1839      0.00000
     10       9.7029      0.00000
     11       9.7529      0.00000
     12      10.4074      0.00000
     13      11.1441      0.00000
     14      13.7315      0.00000

 k-point     4 :       0.3333    0.3333    0.0000
  band No.  band energies     occupation 
      1     -18.4713      2.00000
      2     -18.4710      2.00000
      3     -16.3256      2.00000
      4      -4.9994      1.00124
      5      -4.9991      0.99876
      6       7.2126      0.00000
      7       7.9307      0.00000
      8       7.9310      0.00000
      9       9.8703      0.00000
     10      12.4735      0.00000
     11      12.4735      0.00000
     12      13.1371      0.00000
     13      13.1373      0.00000
     14      13.5109      0.00000

 k-point     5 :      -0.3333    0.3333    0.0000
  band No.  band energies     occupation 
      1     -22.5561      2.00000
      2     -15.5975      2.00000
      3     -12.0150      2.00000
      4      -9.3351      2.00000
      5      -0.2592     -0.00000
      6       1.9548      0.00000
      7       4.7243      0.00000
      8       6.0321      0.00000
      9       7.1838      0.00000
     10       9.7029      0.00000
     11       9.7538      0.00000
     12      10.4063      0.00000
     13      11.1440      0.00000
     14      13.7317      0.00000


--------------------------------------------------------------------------------------------------------


 soft charge-density along one line, spin component           1
         0         1         2         3         4         5         6         7         8         9
 total charge-density along one line
 
 pseudopotential strength for first ion, spin component:           1
 10.479   0.027  -0.000  -0.000   0.000   0.000   0.000  -0.000
  0.027  -0.001   0.000   0.000  -0.000   0.000   0.000  -0.000
 -0.000   0.000  -4.631  -0.000   0.000  -0.003  -0.000   0.000
 -0.000   0.000  -0.000  -4.598   0.000  -0.000   0.002   0.000
  0.000  -0.000   0.000   0.000  -4.631   0.000   0.000  -0.003
  0.000   0.000  -0.003  -0.000   0.000  -0.776  -0.000   0.000
  0.000   0.000  -0.000   0.002   0.000  -0.000  -0.775   0.000
 -0.000  -0.000   0.000   0.000  -0.003   0.000   0.000  -0.776
 total augmentation occupancy for first ion, spin component:           1
  1.494  -0.938  -0.000   0.000  -0.000  -0.000  -0.000   0.000
 -0.938   0.739   0.000   0.000  -0.000   0.000   0.000  -0.000
 -0.000   0.000   1.289  -0.000  -0.000   0.207  -0.000   0.000
  0.000   0.000  -0.000   1.055  -0.000   0.000   0.077   0.000
 -0.000  -0.000  -0.000  -0.000   1.289   0.000  -0.000   0.207
 -0.000   0.000   0.207   0.000   0.000   0.039  -0.000   0.000
 -0.000   0.000  -0.000   0.077  -0.000  -0.000   0.008  -0.000
  0.000  -0.000   0.000   0.000   0.207   0.000  -0.000   0.039


----------------------------------------- Iteration    1(   6)  ---------------------------------------


    POTLOK:  cpu time    0.0060: real time    0.0059
    SETDIJ:  cpu time    0.0060: real time    0.0068
     EDDAV:  cpu time    0.1790: real time    0.3396
       DOS:  cpu time    0.0000: real time    0.0002
    CHARGE:  cpu time    0.0040: real time    0.0040
    MIXING:  cpu time    0.0010: real time    0.0004
    --------------------------------------------
      LOOP:  cpu time    0.1970: real time    0.3593

 eigenvalue-minimisations  :   182
 total energy-change (2. order) : 0.8839449E+00  (-0.8473275E-01)
 number of electron       8.0000000 magnetization 
 augmentation part        0.2053539 magnetization 

 Broyden mixing:
  rms(total) = 0.29095E+00    rms(broyden)= 0.29092E+00
  rms(prec ) = 0.36084E+00
  weight for this iteration     100.00

 eigenvalues of (default mixing * dielectric matrix)
  average eigenvalue GAMMA=   2.0614
  2.0614

 Free energy of the ion-electron system (eV)
  ---------------------------------------------------
  alpha Z        PSCENC =         5.09113229
  Ewald energy   TEWEN  =       551.13459492
  -Hartree energ DENC   =      -787.55183758
  -exchange      EXHF   =         0.00000000
  -V(xc)+E(xc)   XCENC  =        27.95951126
  PAW double counting   =       102.24596125     -104.72187730
  entropy T*S    EENTRO =        -0.02507506
  eigenvalues    EBANDS =      -106.65038980
  atomic energy  EATOM  =       294.25444774
  Solvation  Ediel_sol  =         0.00000000
  ---------------------------------------------------
  free energy    TOTEN  =       -18.26353228 eV

  energy without entropy =      -18.23845722  energy(sigma->0) =      -18.25517392


--------------------------------------------------------------------------------------------------------




 average (electrostatic) potential at core
  the test charge radii are     0.6991
  (the norm of the test charge is              1.0000)
       1 -60.5655       2 -60.5655
 
 
 
 E-fermi :  -3.9253     XC(G=0):  -4.1646     alpha+bet : -3.1363


 k-point     1 :       0.0000    0.0000    0.0000
  band No.  band energies     occupation 
      1     -23.6880      2.00000
      2     -11.2541      2.00000
      3      -7.7481      2.00000
      4      -7.7465      2.00000
      5       1.0525     -0.00000
      6       2.2712      0.00000
      7       3.1021      0.00000
      8       3.7692      0.00000
      9       3.7698      0.00000
     10       6.0884      0.00000
     11       6.9587      0.00000
     12       7.3651      0.00000
     13       7.7365      0.00000
     14      12.2560      0.00000

 k-point     2 :       0.3333    0.0000    0.0000
  band No.  band energies     occupation 
      1     -21.1761      2.00000
      2     -14.0787      2.00000
      3     -10.3697      2.00000
      4      -8.3623      2.00000
      5       0.8662     -0.00000
      6       3.2316      0.00000
      7       4.5556      0.00000
      8       5.7628      0.00000
      9       6.6487      0.00000
     10       9.3785      0.00000
     11      10.7930      0.00000
     12      11.4056      0.00000
     13      11.7270      0.00000
     14      13.8464      0.00000

 k-point     3 :       0.0000    0.3333    0.0000
  band No.  band energies     occupation 
      1     -21.1761      2.00000
      2     -14.0787      2.00000
      3     -10.3698      2.00000
      4      -8.3623      2.00000
      5       0.8663     -0.00000
      6       3.2315      0.00000
      7       4.5556      0.00000
      8       5.7628      0.00000
      9       6.6487      0.00000
     10       9.3785      0.00000
     11      10.7930      0.00000
     12      11.4058      0.00000
     13      11.7269      0.00000
     14      13.8463      0.00000

 k-point     4 :       0.3333    0.3333    0.0000
  band No.  band energies     occupation 
      1     -16.9932      2.00000
      2     -16.9930      2.00000
      3     -14.8735      2.00000
      4      -3.9254      1.00110
      5      -3.9252      0.99890
      6       7.5025      0.00000
      7       9.1561      0.00000
      8       9.1564      0.00000
      9      10.3883      0.00000
     10      12.4503      0.00000
     11      12.4516      0.00000
     12      12.8452      0.00000
     13      12.8461      0.00000
     14      13.2111      0.00000

 k-point     5 :      -0.3333    0.3333    0.0000
  band No.  band energies     occupation 
      1     -21.1761      2.00000
      2     -14.0792      2.00000
      3     -10.3689      2.00000
      4      -8.3623      2.00000
      5       0.8661     -0.00000
      6       3.2313      0.00000
      7       4.5556      0.00000
      8       5.7628      0.00000
      9       6.6487      0.00000
     10       9.3786      0.00000
     11      10.7929      0.00000
     12      11.4065      0.00000
     13      11.7259      0.00000
     14      13.8463      0.00000


--------------------------------------------------------------------------------------------------------


 soft charge-density along one line, spin component           1
         0         1         2         3         4         5         6         7         8         9
 total charge-density along one line
 
 pseudopotential strength for first ion, spin component:           1
 10.364   0.023   0.000  -0.000  -0.000  -0.000   0.000   0.000
  0.023  -0.001   0.000   0.000   0.000  -0.000   0.000   0.000
  0.000   0.000  -4.487  -0.000   0.000  -0.012  -0.000   0.000
 -0.000   0.000  -0.000  -4.465   0.000  -0.000  -0.008   0.000
 -0.000   0.000   0.000   0.000  -4.487   0.000   0.000  -0.012
 -0.000  -0.000  -0.012  -0.000   0.000  -0.774  -0.000   0.000
  0.000   0.000  -0.000  -0.008   0.000  -0.000  -0.774   0.000
  0.000   0.000   0.000   0.000  -0.012   0.000   0.000  -0.774
 total augmentation occupancy for first ion, spin component:           1
  1.468  -1.059  -0.000  -0.000  -0.000  -0.000   0.000   0.000
 -1.059   0.917   0.000   0.000   0.000   0.000   0.000   0.000
 -0.000   0.000   1.257   0.000  -0.000   0.217  -0.000   0.000
 -0.000   0.000   0.000   0.996   0.000  -0.000   0.092  -0.000
 -0.000   0.000  -0.000   0.000   1.258   0.000  -0.000   0.217
 -0.000   0.000   0.217  -0.000   0.000   0.043  -0.000   0.000
  0.000   0.000  -0.000   0.092  -0.000  -0.000   0.011  -0.000
  0.000   0.000   0.000  -0.000   0.217   0.000  -0.000   0.043


----------------------------------------- Iteration    1(   7)  ---------------------------------------


    POTLOK:  cpu time    0.0050: real time    0.0046
    SETDIJ:  cpu time    0.0030: real time    0.0027
     EDDAV:  cpu time    0.1720: real time    0.3556
       DOS:  cpu time    0.0010: real time    0.0006
    CHARGE:  cpu time    0.0040: real time    0.0052
    MIXING:  cpu time    0.0010: real time    0.0004
    --------------------------------------------
      LOOP:  cpu time    0.1860: real time    0.3711

 eigenvalue-minimisations  :   196
 total energy-change (2. order) : 0.3418592E+00  (-0.1020851E+00)
 number of electron       8.0000000 magnetization 
 augmentation part        0.1954844 magnetization 

 Broyden mixing:
  rms(total) = 0.49759E-01    rms(broyden)= 0.49575E-01
  rms(prec ) = 0.66907E-01
  weight for this iteration     100.00

 eigenvalues of (default mixing * dielectric matrix)
  average eigenvalue GAMMA=   2.2622
  2.1101  2.4144

 Free energy of the ion-electron system (eV)
  ---------------------------------------------------
  alpha Z        PSCENC =         5.09113229
  Ewald energy   TEWEN  =       551.13459492
  -Hartree energ DENC   =      -800.88115977
  -exchange      EXHF   =         0.00000000
  -V(xc)+E(xc)   XCENC  =        28.57582023
  PAW double counting   =       136.46479447     -139.09117235
  entropy T*S    EENTRO =        -0.02507506
  eigenvalues    EBANDS =       -93.44505558
  atomic energy  EATOM  =       294.25444774
  Solvation  Ediel_sol  =         0.00000000
  ---------------------------------------------------
  free energy    TOTEN  =       -17.92167309 eV

  energy without entropy =      -17.89659803  energy(sigma->0) =      -17.91331474


--------------------------------------------------------------------------------------------------------




 average (electrostatic) potential at core
  the test charge radii are     0.6991
  (the norm of the test charge is              1.0000)
       1 -58.0068       2 -58.0065
 
 
 
 E-fermi :  -2.6475     XC(G=0):  -4.1967     alpha+bet : -3.1363


 k-point     1 :       0.0000    0.0000    0.0000
  band No.  band energies     occupation 
      1     -22.0693      2.00000
      2     -10.1362      2.00000
      3      -5.7192      2.00000
      4      -5.7179      2.00000
      5       0.8944     -0.00000
      6       2.0097     -0.00000
      7       2.8915      0.00000
      8       5.5168      0.00000
      9       5.5173      0.00000
     10       5.9563      0.00000
     11       7.1699      0.00000
     12       8.5654      0.00000
     13       9.3865      0.00000
     14      12.1635      0.00000

 k-point     2 :       0.3333    0.0000    0.0000
  band No.  band energies     occupation 
      1     -19.5130      2.00000
      2     -12.2710      2.00000
      3      -8.4238      2.00000
      4      -7.1906      2.00000
      5       2.1889     -0.00000
      6       4.3889      0.00000
      7       4.8332      0.00000
      8       5.5426      0.00000
      9       6.4410      0.00000
     10       9.3068      0.00000
     11      10.6263      0.00000
     12      13.0281      0.00000
     13      13.3374      0.00000
     14      14.1572      0.00000

 k-point     3 :       0.0000    0.3333    0.0000
  band No.  band energies     occupation 
      1     -19.5130      2.00000
      2     -12.2709      2.00000
      3      -8.4239      2.00000
      4      -7.1906      2.00000
      5       2.1890     -0.00000
      6       4.3889      0.00000
      7       4.8331      0.00000
      8       5.5426      0.00000
      9       6.4410      0.00000
     10       9.3068      0.00000
     11      10.6263      0.00000
     12      13.0278      0.00000
     13      13.3375      0.00000
     14      14.1572      0.00000

 k-point     4 :       0.3333    0.3333    0.0000
  band No.  band energies     occupation 
      1     -15.2327      2.00000
      2     -15.2326      2.00000
      3     -13.1224      2.00000
      4      -2.6476      1.00109
      5      -2.6474      0.99891
      6       7.9958      0.00000
      7      10.2642      0.00000
      8      10.2645      0.00000
      9      10.8990      0.00000
     10      12.6039      0.00000
     11      12.6043      0.00000
     12      12.6258      0.00000
     13      12.6259      0.00000
     14      13.1122      0.00000

 k-point     5 :      -0.3333    0.3333    0.0000
  band No.  band energies     occupation 
      1     -19.5130      2.00000
      2     -12.2713      2.00000
      3      -8.4232      2.00000
      4      -7.1905      2.00000
      5       2.1888     -0.00000
      6       4.3888      0.00000
      7       4.8330      0.00000
      8       5.5426      0.00000
      9       6.4410      0.00000
     10       9.3069      0.00000
     11      10.6263      0.00000
     12      13.0272      0.00000
     13      13.3382      0.00000
     14      14.1573      0.00000


--------------------------------------------------------------------------------------------------------


 soft charge-density along one line, spin component           1
         0         1         2         3         4         5         6         7         8         9
 total charge-density along one line
 
 pseudopotential strength for first ion, spin component:           1
 10.225   0.019   0.000  -0.000   0.000  -0.000   0.000  -0.000
  0.019  -0.002  -0.000   0.000   0.000  -0.000   0.000  -0.000
  0.000  -0.000  -4.332  -0.000  -0.000  -0.019  -0.000   0.000
 -0.000   0.000  -0.000  -4.325   0.000  -0.000  -0.016  -0.000
  0.000   0.000  -0.000   0.000  -4.332   0.000  -0.000  -0.019
 -0.000  -0.000  -0.019  -0.000   0.000  -0.772   0.000  -0.000
  0.000   0.000  -0.000  -0.016  -0.000   0.000  -0.772   0.000
 -0.000  -0.000   0.000  -0.000  -0.019  -0.000   0.000  -0.772
 total augmentation occupancy for first ion, spin component:           1
  1.441  -1.162  -0.000  -0.000   0.000   0.000   0.000  -0.000
 -1.162   1.091   0.000   0.000   0.000   0.000   0.000   0.000
 -0.000   0.000   1.224   0.000  -0.000   0.227   0.000   0.000
 -0.000   0.000   0.000   0.931  -0.000   0.000   0.107   0.000
  0.000   0.000  -0.000  -0.000   1.224   0.000  -0.000   0.227
  0.000   0.000   0.227   0.000   0.000   0.048   0.000   0.000
  0.000   0.000   0.000   0.107  -0.000   0.000   0.014  -0.000
 -0.000   0.000   0.000   0.000   0.227   0.000  -0.000   0.048


----------------------------------------- Iteration    1(   8)  ---------------------------------------


    POTLOK:  cpu time    0.0050: real time    0.0054
    SETDIJ:  cpu time    0.0040: real time    0.0037
     EDDAV:  cpu time    0.2040: real time    0.3886
       DOS:  cpu time    0.0000: real time    0.0003
    CHARGE:  cpu time    0.0140: real time    0.0141
    MIXING:  cpu time    0.0010: real time    0.0005
    --------------------------------------------
      LOOP:  cpu time    0.2290: real time    0.4149

 eigenvalue-minimisations  :   210
 total energy-change (2. order) : 0.9780950E-02  (-0.7071315E-03)
 number of electron       8.0000000 magnetization 
 augmentation part        0.1953641 magnetization 

 Broyden mixing:
  rms(total) = 0.74959E-02    rms(broyden)= 0.74423E-02
  rms(prec ) = 0.25912E-01
  weight for this iteration     100.00

 eigenvalues of (default mixing * dielectric matrix)
  average eigenvalue GAMMA=   2.0010
  1.2830  2.6605  2.0595

 Free energy of the ion-electron system (eV)
  ---------------------------------------------------
  alpha Z        PSCENC =         5.09113229
  Ewald energy   TEWEN  =       551.13459492
  -Hartree energ DENC   =      -803.50697298
  -exchange      EXHF   =         0.00000000
  -V(xc)+E(xc)   XCENC  =        28.61859515
  PAW double counting   =       137.95070063     -140.52181589
  entropy T*S    EENTRO =        -0.02507477
  eigenvalues    EBANDS =       -90.90749924
  atomic energy  EATOM  =       294.25444774
  Solvation  Ediel_sol  =         0.00000000
  ---------------------------------------------------
  free energy    TOTEN  =       -17.91189214 eV

  energy without entropy =      -17.88681737  energy(sigma->0) =      -17.90353389


--------------------------------------------------------------------------------------------------------




 average (electrostatic) potential at core
  the test charge radii are     0.6991
  (the norm of the test charge is              1.0000)
       1 -57.8214       2 -57.8233
 
 
 
 E-fermi :  -2.3555     XC(G=0):  -4.1943     alpha+bet : -3.1363


 k-point     1 :       0.0000    0.0000    0.0000
  band No.  band energies     occupation 
      1     -21.7399      2.00000
      2      -9.8410      2.00000
      3      -5.4011      2.00000
      4      -5.3997      2.00000
      5       0.9473     -0.00000
      6       2.0651     -0.00000
      7       2.6944     -0.00000
      8       5.8409      0.00000
      9       5.8413      0.00000
     10       5.8780      0.00000
     11       7.1231      0.00000
     12       8.8579      0.00000
     13       9.6881      0.00000
     14      12.1502      0.00000

 k-point     2 :       0.3333    0.0000    0.0000
  band No.  band energies     occupation 
      1     -19.1850      2.00000
      2     -11.9460      2.00000
      3      -8.1022      2.00000
      4      -6.8966      2.00000
      5       2.4821     -0.00000
      6       4.4735      0.00000
      7       5.1506      0.00000
      8       5.6099      0.00000
      9       6.2391      0.00000
     10       9.2436      0.00000
     11      10.5852      0.00000
     12      13.2908      0.00000
     13      13.6479      0.00000
     14      14.3117      0.00000

 k-point     3 :       0.0000    0.3333    0.0000
  band No.  band energies     occupation 
      1     -19.1850      2.00000
      2     -11.9460      2.00000
      3      -8.1023      2.00000
      4      -6.8966      2.00000
      5       2.4821     -0.00000
      6       4.4735      0.00000
      7       5.1506      0.00000
      8       5.6099      0.00000
      9       6.2391      0.00000
     10       9.2436      0.00000
     11      10.5852      0.00000
     12      13.2907      0.00000
     13      13.6481      0.00000
     14      14.3116      0.00000

 k-point     4 :       0.3333    0.3333    0.0000
  band No.  band energies     occupation 
      1     -14.9116      2.00000
      2     -14.9113      2.00000
      3     -12.7836      2.00000
      4      -2.3559      1.00351
      5      -2.3551      0.99649
      6       8.3012      0.00000
      7      10.4889      0.00000
      8      10.4893      0.00000
      9      11.1351      0.00000
     10      12.5227      0.00000
     11      12.5228      0.00000
     12      12.6901      0.00000
     13      12.6902      0.00000
     14      12.9028      0.00000

 k-point     5 :      -0.3333    0.3333    0.0000
  band No.  band energies     occupation 
      1     -19.1851      2.00000
      2     -11.9464      2.00000
      3      -8.1015      2.00000
      4      -6.8965      2.00000
      5       2.4819     -0.00000
      6       4.4735      0.00000
      7       5.1505      0.00000
      8       5.6098      0.00000
      9       6.2391      0.00000
     10       9.2436      0.00000
     11      10.5852      0.00000
     12      13.2900      0.00000
     13      13.6487      0.00000
     14      14.3117      0.00000


--------------------------------------------------------------------------------------------------------


 soft charge-density along one line, spin component           1
         0         1         2         3         4         5         6         7         8         9
 total charge-density along one line
 
 pseudopotential strength for first ion, spin component:           1
 10.204   0.018   0.000   0.000   0.000   0.000  -0.000  -0.000
  0.018  -0.002   0.000   0.000  -0.000  -0.000  -0.000  -0.000
  0.000   0.000  -4.324  -0.000  -0.000  -0.017  -0.000   0.000
  0.000   0.000  -0.000  -4.319   0.000  -0.000  -0.014   0.000
  0.000  -0.000  -0.000   0.000  -4.324   0.000   0.000  -0.017
  0.000  -0.000  -0.017  -0.000   0.000  -0.772  -0.000  -0.000
 -0.000  -0.000  -0.000  -0.014   0.000  -0.000  -0.772   0.000
 -0.000  -0.000   0.000   0.000  -0.017  -0.000   0.000  -0.772
 total augmentation occupancy for first ion, spin component:           1
  1.442  -1.147  -0.000  -0.000  -0.000  -0.000   0.000   0.000
 -1.147   1.069   0.000   0.000  -0.000   0.000   0.000  -0.000
 -0.000   0.000   1.225   0.000  -0.000   0.226  -0.000   0.000
 -0.000   0.000   0.000   0.929  -0.000  -0.000   0.106  -0.000
 -0.000  -0.000  -0.000  -0.000   1.225   0.000  -0.000   0.226
 -0.000   0.000   0.226  -0.000   0.000   0.048  -0.000   0.000
  0.000   0.000  -0.000   0.106  -0.000  -0.000   0.014  -0.000
  0.000  -0.000   0.000  -0.000   0.226   0.000  -0.000   0.047


----------------------------------------- Iteration    1(   9)  ---------------------------------------


    POTLOK:  cpu time    0.0070: real time    0.0070
    SETDIJ:  cpu time    0.0040: real time    0.0036
     EDDAV:  cpu time    0.2810: real time    0.4424
       DOS:  cpu time    0.0010: real time    0.0013
    CHARGE:  cpu time    0.0040: real time    0.0038
    MIXING:  cpu time    0.0000: real time    0.0004
    --------------------------------------------
      LOOP:  cpu time    0.2970: real time    0.4606

 eigenvalue-minimisations  :   252
 total energy-change (2. order) : 0.1960690E-02  (-0.1188605E-03)
 number of electron       8.0000000 magnetization 
 augmentation part        0.1951012 magnetization 

 Broyden mixing:
  rms(total) = 0.70030E-02    rms(broyden)= 0.69955E-02
  rms(prec ) = 0.20299E-01
  weight for this iteration     100.00

 eigenvalues of (default mixing * dielectric matrix)
  average eigenvalue GAMMA=   1.7833
  2.7327  2.0931  1.6496  0.6576

 Free energy of the ion-electron system (eV)
  ---------------------------------------------------
  alpha Z        PSCENC =         5.09113229
  Ewald energy   TEWEN  =       551.13459492
  -Hartree energ DENC   =      -804.73411669
  -exchange      EXHF   =         0.00000000
  -V(xc)+E(xc)   XCENC  =        28.64179023
  PAW double counting   =       138.23591970     -140.80499159
  entropy T*S    EENTRO =        -0.02507285
  eigenvalues    EBANDS =       -89.70363522
  atomic energy  EATOM  =       294.25444774
  Solvation  Ediel_sol  =         0.00000000
  ---------------------------------------------------
  free energy    TOTEN  =       -17.90993145 eV

  energy without entropy =      -17.88485861  energy(sigma->0) =      -17.90157384


--------------------------------------------------------------------------------------------------------




 average (electrostatic) potential at core
  the test charge radii are     0.6991
  (the norm of the test charge is              1.0000)
       1 -57.6713       2 -57.6660
 
 
 
 E-fermi :  -2.2152     XC(G=0):  -4.1570     alpha+bet : -3.1363


 k-point     1 :       0.0000    0.0000    0.0000
  band No.  band energies     occupation 
      1     -21.5876      2.00000
      2      -9.7055      2.00000
      3      -5.2436      2.00000
      4      -5.2423      2.00000
      5       0.9820     -0.00000
      6       2.1188     -0.00000
      7       2.6660     -0.00000
      8       5.8805      0.00000
      9       5.9947      0.00000
     10       5.9952      0.00000
     11       7.1713      0.00000
     12       9.0069      0.00000
     13       9.8384      0.00000
     14      12.1911      0.00000

 k-point     2 :       0.3333    0.0000    0.0000
  band No.  band energies     occupation 
      1     -19.0322      2.00000
      2     -11.7912      2.00000
      3      -7.9456      2.00000
      4      -6.7594      2.00000
      5       2.6227     -0.00000
      6       4.5157      0.00000
      7       5.2971      0.00000
      8       5.6654      0.00000
      9       6.2118      0.00000
     10       9.2539      0.00000
     11      10.6347      0.00000
     12      13.4102      0.00000
     13      13.8032      0.00000
     14      14.3852      0.00000

 k-point     3 :       0.0000    0.3333    0.0000
  band No.  band energies     occupation 
      1     -19.0322      2.00000
      2     -11.7911      2.00000
      3      -7.9457      2.00000
      4      -6.7594      2.00000
      5       2.6228     -0.00000
      6       4.5157      0.00000
      7       5.2971      0.00000
      8       5.6654      0.00000
      9       6.2118      0.00000
     10       9.2539      0.00000
     11      10.6347      0.00000
     12      13.4102      0.00000
     13      13.8033      0.00000
     14      14.3852      0.00000

 k-point     4 :       0.3333    0.3333    0.0000
  band No.  band energies     occupation 
      1     -14.7582      2.00000
      2     -14.7573      2.00000
      3     -12.6282      2.00000
      4      -2.2162      1.00925
      5      -2.2141      0.99075
      6       8.4092      0.00000
      7      10.5912      0.00000
      8      10.5919      0.00000
      9      11.2150      0.00000
     10      12.5339      0.00000
     11      12.5341      0.00000
     12      12.7426      0.00000
     13      12.7427      0.00000
     14      12.8848      0.00000

 k-point     5 :      -0.3333    0.3333    0.0000
  band No.  band energies     occupation 
      1     -19.0322      2.00000
      2     -11.7916      2.00000
      3      -7.9449      2.00000
      4      -6.7594      2.00000
      5       2.6226     -0.00000
      6       4.5157      0.00000
      7       5.2970      0.00000
      8       5.6654      0.00000
      9       6.2118      0.00000
     10       9.2539      0.00000
     11      10.6347      0.00000
     12      13.4095      0.00000
     13      13.8040      0.00000
     14      14.3852      0.00000


--------------------------------------------------------------------------------------------------------


 soft charge-density along one line, spin component           1
         0         1         2         3         4         5         6         7         8         9
 total charge-density along one line
 
 pseudopotential strength for first ion, spin component:           1
 10.194   0.018   0.000   0.000   0.000  -0.000  -0.000  -0.000
  0.018  -0.002   0.000   0.000  -0.000  -0.000  -0.000  -0.000
  0.000   0.000  -4.316  -0.000  -0.000  -0.017  -0.000   0.000
  0.000   0.000  -0.000  -4.311   0.000  -0.000  -0.014   0.000
  0.000  -0.000  -0.000   0.000  -4.316   0.000   0.000  -0.017
 -0.000  -0.000  -0.017  -0.000   0.000  -0.772  -0.000  -0.000
 -0.000  -0.000  -0.000  -0.014   0.000  -0.000  -0.772   0.000
 -0.000  -0.000   0.000   0.000  -0.017  -0.000   0.000  -0.772
 total augmentation occupancy for first ion, spin component:           1
  1.442  -1.145  -0.000  -0.000  -0.000  -0.000   0.000   0.000
 -1.145   1.065   0.000   0.000  -0.000   0.000   0.000  -0.000
 -0.000   0.000   1.225   0.000  -0.000   0.226  -0.000   0.000
 -0.000   0.000   0.000   0.931  -0.000  -0.000   0.106  -0.000
 -0.000  -0.000  -0.000  -0.000   1.225   0.000  -0.000   0.226
 -0.000   0.000   0.226  -0.000   0.000   0.048  -0.000   0.000
  0.000   0.000  -0.000   0.106  -0.000  -0.000   0.014  -0.000
  0.000  -0.000   0.000  -0.000   0.226   0.000  -0.000   0.047


----------------------------------------- Iteration    1(  10)  ---------------------------------------


    POTLOK:  cpu time    0.0040: real time    0.0044
    SETDIJ:  cpu time    0.0030: real time    0.0021
     EDDAV:  cpu time    0.2720: real time    0.4780
       DOS:  cpu time    0.0010: real time    0.0009
    CHARGE:  cpu time    0.0090: real time    0.0096
    MIXING:  cpu time    0.0010: real time    0.0005
    --------------------------------------------
      LOOP:  cpu time    0.2910: real time    0.4977

 eigenvalue-minimisations  :   154
 total energy-change (2. order) : 0.1370532E-02  (-0.2205641E-03)
 number of electron       8.0000000 magnetization 
 augmentation part        0.1949041 magnetization 

 Broyden mixing:
  rms(total) = 0.13633E-01    rms(broyden)= 0.13604E-01
  rms(prec ) = 0.19276E-01
  weight for this iteration     100.00

 eigenvalues of (default mixing * dielectric matrix)
  average eigenvalue GAMMA=   1.9268
  3.7515  2.5266  2.0024  0.9826  0.3710

 Free energy of the ion-electron system (eV)
  ---------------------------------------------------
  alpha Z        PSCENC =         5.09113229
  Ewald energy   TEWEN  =       551.13459492
  -Hartree energ DENC   =      -806.60463603
  -exchange      EXHF   =         0.00000000
  -V(xc)+E(xc)   XCENC  =        28.66338740
  PAW double counting   =       137.54929884     -140.12102705
  entropy T*S    EENTRO =        -0.02498533
  eigenvalues    EBANDS =       -87.85077371
  atomic energy  EATOM  =       294.25444774
  Solvation  Ediel_sol  =         0.00000000
  ---------------------------------------------------
  free energy    TOTEN  =       -17.90856092 eV

  energy without entropy =      -17.88357559  energy(sigma->0) =      -17.90023247


--------------------------------------------------------------------------------------------------------




 average (electrostatic) potential at core
  the test charge radii are     0.6991
  (the norm of the test charge is              1.0000)
       1 -57.4107       2 -57.4448
 
 
 
 E-fermi :  -1.9896     XC(G=0):  -4.0311     alpha+bet : -3.1363


 k-point     1 :       0.0000    0.0000    0.0000
  band No.  band energies     occupation 
      1     -21.3541      2.00000
      2      -9.4861      2.00000
      3      -5.0078      2.00000
      4      -5.0065      2.00000
      5       1.1120     -0.00000
      6       2.3163     -0.00000
      7       2.6648     -0.00000
      8       5.9347      0.00000
      9       6.2298      0.00000
     10       6.2303      0.00000
     11       7.3410      0.00000
     12       9.2414      0.00000
     13      10.0727      0.00000
     14      12.3721      0.00000

 k-point     2 :       0.3333    0.0000    0.0000
  band No.  band energies     occupation 
      1     -18.7983      2.00000
      2     -11.5563      2.00000
      3      -7.7100      2.00000
      4      -6.5379      2.00000
      5       2.8483     -0.00000
      6       4.6545      0.00000
      7       5.5222      0.00000
      8       5.8628      0.00000
      9       6.2115      0.00000
     10       9.3178      0.00000
     11      10.8071      0.00000
     12      13.6130      0.00000
     13      14.0390      0.00000
     14      14.5602      0.00000

 k-point     3 :       0.0000    0.3333    0.0000
  band No.  band energies     occupation 
      1     -18.7983      2.00000
      2     -11.5562      2.00000
      3      -7.7101      2.00000
      4      -6.5379      2.00000
      5       2.8484     -0.00000
      6       4.6545      0.00000
      7       5.5222      0.00000
      8       5.8628      0.00000
      9       6.2115      0.00000
     10       9.3178      0.00000
     11      10.8071      0.00000
     12      13.6130      0.00000
[...]
    HAMIL1:  cpu time    0.0090: real time    0.0328
    LRDIAG:  cpu time    0.0060: real time    0.0059
    LRDIIS:  cpu time    0.0530: real time    0.0581
    LRDIAG:  cpu time    0.0070: real time    0.0073
    MIXING:  cpu time    0.0040: real time    0.0038
    --------------------------------------------
      LOOP:  cpu time    0.1160: real time    0.1453

 Broyden mixing:
  rms(total) = 0.41287E-05    rms(broyden)= 0.41282E-05
  rms(prec ) = 0.46012E-05
  weight for this iteration     100.00

 eigenvalues of (default mixing * dielectric matrix)
  average eigenvalue GAMMA=   0.9563
  2.9649  2.4890  2.4890  2.0915  1.1608  1.0207  1.0207  0.9951  0.8380  0.5289
  0.3637  0.3637  0.2986  0.2986  0.1431  0.0554  0.0554  0.0371

 Free energy of the ion-electron system (eV)
  ---------------------------------------------------
  -Hartree energ DENC   =        -0.01376980
  -V(xc)+E(xc)   XCENC  =         0.00108043
  PAW double counting   =         0.01348702       -0.01317389
  entropy T*S    EENTRO =         0.00000000
  eigenvalues    EBANDS =        -0.12557838
  ---------------------------------------------------
  free energy    TOTEN  =        -0.13795461 eV

  energy without entropy =       -0.13795461


----------------------------------------- Iteration    2(  21)  ---------------------------------------


   POT+DIJ:  cpu time    0.0310: real time    0.0307
    HAMIL1:  cpu time    0.0150: real time    0.0403
    LRDIAG:  cpu time    0.0020: real time    0.0025
    LRDIIS:  cpu time    0.0160: real time    0.0225
    LRDIAG:  cpu time    0.0030: real time    0.0029
    MIXING:  cpu time    0.0020: real time    0.0012
    --------------------------------------------
      LOOP:  cpu time    0.0750: real time    0.1069

 Broyden mixing:
  rms(total) = 0.42107E-05    rms(broyden)= 0.42102E-05
  rms(prec ) = 0.46870E-05
  weight for this iteration     100.00

 eigenvalues of (default mixing * dielectric matrix)
  average eigenvalue GAMMA=   0.9434
  2.9533  2.5130  2.4513  2.0821  1.1389  1.1129  1.1129  0.9962  0.9029  0.5253
  0.5253  0.4329  0.3196  0.3196  0.2382  0.1521  0.0554  0.0554  0.0371

 Free energy of the ion-electron system (eV)
  ---------------------------------------------------
  -Hartree energ DENC   =        -0.01376981
  -V(xc)+E(xc)   XCENC  =         0.00108043
  PAW double counting   =         0.01348702       -0.01317389
  entropy T*S    EENTRO =         0.00000000
  eigenvalues    EBANDS =        -0.12570672
  ---------------------------------------------------
  free energy    TOTEN  =        -0.13808298 eV

  energy without entropy =       -0.13808298


------------------------ aborting loop because EDIFF is reached ----------------------------------------


 change of polarisation eV/A/(eV/A) component  2 :     0.000     0.260    -0.000
 dielectric tensor                  component  2 :     0.000     1.735    -0.000


--------------------------------------------------------------------------------------------------------


    FORLOC:  cpu time    0.0040: real time    0.0038
    FORNL :  cpu time    0.0460: real time    0.4505
    STRESS:  cpu time    0.1980: real time    1.7562
    OFIELD:  cpu time    0.0000: real time    0.0001
    FORLOC:  cpu time    0.0010: real time    0.0003
    FORNL :  cpu time    0.0500: real time    0.6797
    STRESS:  cpu time    0.1230: real time    1.3600
    OFIELD:  cpu time    0.0000: real time    0.0001
    FORNLD:  cpu time    0.1020: real time    1.1871

 PIEZOELECTRIC TENSOR FIELD DIRECTION 2  (e Angst)
 -----------------------------------------------------------------------------
     0.02793 -1.32346 -0.00000           ( -0.00001 -0.00000 -0.00000)
    -1.32346 -0.02776 -0.00000           ( -0.00000  0.00002  0.00000)
    -0.00000 -0.00000  0.00005           ( -0.00000  0.00000 -0.00000)

 PIEZOELECTRIC TENSOR FIELD DIRECTION 2  (C/m^2)
 -----------------------------------------------------------------------------
     0.00699 -0.33123 -0.00000
    -0.33123 -0.00695 -0.00000
    -0.00000 -0.00000  0.00001


      POSITION         DIRECTION 2           BORN EFFECTIVE CHARGE    (rigid.aug.   ionic)
 -----------------------------------------------------------------------------------------
      1.24324      2.14317      1.69765    -1.36534  0.01800  0.00000 ( -0.09739  4.00000)
      0.00226      1.42671      1.69765     1.36536 -0.04010  0.00000 ( -0.09739  4.00000)
 -----------------------------------------------------------------------------------------
    total drift (improves with k-points):   0.00002 -0.02210  0.00000




--------------------------------------------------------------------------------------------------------


 Linear response to external field, progress :
  Direction:   3


----------------------------------------- Iteration    3(   1)  ---------------------------------------


   POT+DIJ:  cpu time    0.0190: real time    0.0188
    HAMIL1:  cpu time    0.0090: real time    0.0306
    LRDIAG:  cpu time    0.0030: real time    0.0029
    LRDIIS:  cpu time    0.0370: real time    0.0405
    LRDIAG:  cpu time    0.0020: real time    0.0019
    --------------------------------------------
      LOOP:  cpu time    0.0700: real time    0.0948

 Free energy of the ion-electron system (eV)
  ---------------------------------------------------
  -Hartree energ DENC   =         0.00000000
  -V(xc)+E(xc)   XCENC  =         0.00000000
  PAW double counting   =         0.00000000        0.00000000
  entropy T*S    EENTRO =         0.00000000
  eigenvalues    EBANDS =        -0.08651673
  ---------------------------------------------------
  free energy    TOTEN  =        -0.08651673 eV

  energy without entropy =       -0.08651673


----------------------------------------- Iteration    3(   2)  ---------------------------------------


   POT+DIJ:  cpu time    0.0180: real time    0.0184
    HAMIL1:  cpu time    0.0090: real time    0.0312
    LRDIAG:  cpu time    0.0030: real time    0.0030
    LRDIIS:  cpu time    0.0250: real time    0.0307
    LRDIAG:  cpu time    0.0010: real time    0.0015
    MIXING:  cpu time    0.0000: real time    0.0002
    --------------------------------------------
      LOOP:  cpu time    0.0620: real time    0.0903

 Broyden mixing:
  rms(total) = 0.48726E-01    rms(broyden)= 0.48720E-01
  rms(prec ) = 0.10680E+00
  weight for this iteration     100.00

 Free energy of the ion-electron system (eV)
  ---------------------------------------------------
  -Hartree energ DENC   =         0.00000000
  -V(xc)+E(xc)   XCENC  =         0.00000000
  PAW double counting   =         0.00000000        0.00000000
  entropy T*S    EENTRO =         0.00000000
  eigenvalues    EBANDS =        -0.08801105
  ---------------------------------------------------
  free energy    TOTEN  =        -0.08801105 eV

  energy without entropy =       -0.08801105


----------------------------------------- Iteration    3(   3)  ---------------------------------------


   POT+DIJ:  cpu time    0.0150: real time    0.0145
    HAMIL1:  cpu time    0.0200: real time    0.0406
    LRDIAG:  cpu time    0.0020: real time    0.0027
    LRDIIS:  cpu time    0.0340: real time    0.0393
    LRDIAG:  cpu time    0.0010: real time    0.0016
    MIXING:  cpu time    0.0010: real time    0.0005
    --------------------------------------------
      LOOP:  cpu time    0.0790: real time    0.1053

 Broyden mixing:
  rms(total) = 0.19180E-01    rms(broyden)= 0.19180E-01
  rms(prec ) = 0.53173E-01
  weight for this iteration     100.00

 eigenvalues of (default mixing * dielectric matrix)
  average eigenvalue GAMMA=   1.3187
  1.3187

 Free energy of the ion-electron system (eV)
  ---------------------------------------------------
  -Hartree energ DENC   =        -0.00614764
  -V(xc)+E(xc)   XCENC  =         0.00015986
  PAW double counting   =         0.00002037       -0.00002036
  entropy T*S    EENTRO =         0.00000000
  eigenvalues    EBANDS =        -0.04654231
  ---------------------------------------------------
  free energy    TOTEN  =        -0.05253008 eV

  energy without entropy =       -0.05253008


----------------------------------------- Iteration    3(   4)  ---------------------------------------


   POT+DIJ:  cpu time    0.0130: real time    0.0133
    HAMIL1:  cpu time    0.0120: real time    0.0476
    LRDIAG:  cpu time    0.0020: real time    0.0029
    LRDIIS:  cpu time    0.0230: real time    0.0297
    LRDIAG:  cpu time    0.0020: real time    0.0019
    MIXING:  cpu time    0.0010: real time    0.0004
    --------------------------------------------
      LOOP:  cpu time    0.0590: real time    0.1025

 Broyden mixing:
  rms(total) = 0.10641E-01    rms(broyden)= 0.10638E-01
  rms(prec ) = 0.23294E-01
  weight for this iteration     100.00

 eigenvalues of (default mixing * dielectric matrix)
  average eigenvalue GAMMA=   1.9225
  1.9225  1.9225

 Free energy of the ion-electron system (eV)
  ---------------------------------------------------
  -Hartree energ DENC   =        -0.01784121
  -V(xc)+E(xc)   XCENC  =         0.00042314
  PAW double counting   =         0.00000414       -0.00000307
  entropy T*S    EENTRO =         0.00000000
  eigenvalues    EBANDS =        -0.02556267
  ---------------------------------------------------
  free energy    TOTEN  =        -0.04297966 eV

  energy without entropy =       -0.04297966


----------------------------------------- Iteration    3(   5)  ---------------------------------------


   POT+DIJ:  cpu time    0.0150: real time    0.0152
    HAMIL1:  cpu time    0.0100: real time    0.0361
    LRDIAG:  cpu time    0.0020: real time    0.0022
    LRDIIS:  cpu time    0.0220: real time    0.0268
    LRDIAG:  cpu time    0.0010: real time    0.0015
    MIXING:  cpu time    0.0010: real time    0.0004
    --------------------------------------------
      LOOP:  cpu time    0.0570: real time    0.0885

 Broyden mixing:
  rms(total) = 0.43888E-02    rms(broyden)= 0.43878E-02
  rms(prec ) = 0.10438E-01
  weight for this iteration     100.00

 eigenvalues of (default mixing * dielectric matrix)
  average eigenvalue GAMMA=   2.3912
  2.7986  2.7986  1.5764

 Free energy of the ion-electron system (eV)
  ---------------------------------------------------
  -Hartree energ DENC   =        -0.02196398
  -V(xc)+E(xc)   XCENC  =         0.00051600
  PAW double counting   =         0.00019365       -0.00018596
  entropy T*S    EENTRO =         0.00000000
  eigenvalues    EBANDS =        -0.02016423
  ---------------------------------------------------
  free energy    TOTEN  =        -0.04160453 eV

  energy without entropy =       -0.04160453


----------------------------------------- Iteration    3(   6)  ---------------------------------------


   POT+DIJ:  cpu time    0.0120: real time    0.0126
    HAMIL1:  cpu time    0.0100: real time    0.0372
    LRDIAG:  cpu time    0.0020: real time    0.0022
    LRDIIS:  cpu time    0.0270: real time    0.0313
    LRDIAG:  cpu time    0.0010: real time    0.0015
    MIXING:  cpu time    0.0010: real time    0.0004
    --------------------------------------------
      LOOP:  cpu time    0.0590: real time    0.0912

 Broyden mixing:
  rms(total) = 0.15436E-02    rms(broyden)= 0.15428E-02
  rms(prec ) = 0.40700E-02
  weight for this iteration     100.00

 eigenvalues of (default mixing * dielectric matrix)
  average eigenvalue GAMMA=   2.4295
  3.6452  3.2206  1.4261  1.4261

 Free energy of the ion-electron system (eV)
  ---------------------------------------------------
  -Hartree energ DENC   =        -0.02289702
  -V(xc)+E(xc)   XCENC  =         0.00047326
  PAW double counting   =         0.00005425       -0.00005193
  entropy T*S    EENTRO =         0.00000000
  eigenvalues    EBANDS =        -0.01824768
  ---------------------------------------------------
  free energy    TOTEN  =        -0.04066913 eV

  energy without entropy =       -0.04066913


----------------------------------------- Iteration    3(   7)  ---------------------------------------


   POT+DIJ:  cpu time    0.0140: real time    0.0142
    HAMIL1:  cpu time    0.0090: real time    0.0315
    LRDIAG:  cpu time    0.0020: real time    0.0022
    LRDIIS:  cpu time    0.0220: real time    0.0282
    LRDIAG:  cpu time    0.0010: real time    0.0014
    MIXING:  cpu time    0.0010: real time    0.0004
    --------------------------------------------
      LOOP:  cpu time    0.0540: real time    0.0834

 Broyden mixing:
  rms(total) = 0.12398E-02    rms(broyden)= 0.12397E-02
  rms(prec ) = 0.23721E-02
  weight for this iteration     100.00

 eigenvalues of (default mixing * dielectric matrix)
  average eigenvalue GAMMA=   3.0837
  6.7890  3.4097  1.0373  1.5747  2.6078

 Free energy of the ion-electron system (eV)
  ---------------------------------------------------
  -Hartree energ DENC   =        -0.02264635
  -V(xc)+E(xc)   XCENC  =         0.00045602
  PAW double counting   =         0.00003859       -0.00003687
  entropy T*S    EENTRO =         0.00000000
  eigenvalues    EBANDS =        -0.01831185
  ---------------------------------------------------
  free energy    TOTEN  =        -0.04050045 eV

  energy without entropy =       -0.04050045


----------------------------------------- Iteration    3(   8)  ---------------------------------------


   POT+DIJ:  cpu time    0.0130: real time    0.0132
    HAMIL1:  cpu time    0.0090: real time    0.0357
    LRDIAG:  cpu time    0.0030: real time    0.0030
    LRDIIS:  cpu time    0.0500: real time    0.0555
    LRDIAG:  cpu time    0.0020: real time    0.0019
    MIXING:  cpu time    0.0020: real time    0.0008
    --------------------------------------------
      LOOP:  cpu time    0.0870: real time    0.1194

 Broyden mixing:
  rms(total) = 0.26589E-03    rms(broyden)= 0.26582E-03
  rms(prec ) = 0.40635E-03
  weight for this iteration     100.00

 eigenvalues of (default mixing * dielectric matrix)
  average eigenvalue GAMMA=   3.2444
  7.7249  1.0062  1.5774  3.5910  2.9774  2.5891

 Free energy of the ion-electron system (eV)
  ---------------------------------------------------
  -Hartree energ DENC   =        -0.02271885
  -V(xc)+E(xc)   XCENC  =         0.00041180
  PAW double counting   =         0.00006394       -0.00006109
  entropy T*S    EENTRO =         0.00000000
  eigenvalues    EBANDS =        -0.01828516
  ---------------------------------------------------
  free energy    TOTEN  =        -0.04058937 eV

  energy without entropy =       -0.04058937


------------------------ aborting loop because EDIFF is reached ----------------------------------------


 change of polarisation eV/A/(eV/A) component  3 :     0.000    -0.000     0.075
 dielectric tensor                  component  3 :     0.000    -0.000     1.211


--------------------------------------------------------------------------------------------------------


    FORLOC:  cpu time    0.0010: real time    0.0003
    FORNL :  cpu time    0.0560: real time    0.4430
    STRESS:  cpu time    0.1940: real time    1.3563
    OFIELD:  cpu time    0.0000: real time    0.0001
    FORLOC:  cpu time    0.0010: real time    0.0003
    FORNL :  cpu time    0.0520: real time    0.4100
    STRESS:  cpu time    0.1440: real time    1.1535
    OFIELD:  cpu time    0.0000: real time    0.0001
    FORNLD:  cpu time    0.1210: real time    1.5227

 PIEZOELECTRIC TENSOR FIELD DIRECTION 3  (e Angst)
 -----------------------------------------------------------------------------
     0.00001 -0.00000 -0.00000           (  0.00000 -0.00000  0.00000)
    -0.00000  0.00002 -0.00012           ( -0.00000  0.00000 -0.00001)
    -0.00000 -0.00012  0.00010           (  0.00000 -0.00001 -0.00001)

 PIEZOELECTRIC TENSOR FIELD DIRECTION 3  (C/m^2)
 -----------------------------------------------------------------------------
     0.00000 -0.00000 -0.00000
    -0.00000  0.00001 -0.00003
    -0.00000 -0.00003  0.00002


      POSITION         DIRECTION 3           BORN EFFECTIVE CHARGE    (rigid.aug.   ionic)
 -----------------------------------------------------------------------------------------
      1.24324      2.14317      1.69765     0.00001 -0.00001  0.00433 ( -0.09739  4.00000)
      0.00226      1.42671      1.69765    -0.00001 -0.00000  0.00420 ( -0.09739  4.00000)
 -----------------------------------------------------------------------------------------
    total drift (improves with k-points):  -0.00000 -0.00001  0.00853




--------------------------------------------------------------------------------------------------------




 MACROSCOPIC STATIC DIELECTRIC TENSOR (including local field effects in DFT)
 ------------------------------------------------------
           1.735151     0.000080     0.000000
           0.000447     1.735056    -0.000000
           0.000000    -0.000000     1.211039
 ------------------------------------------------------



--------------------------------------------------------------------------------------------------------




--------------------------------------------------------------------------------------------------------




 MACROSCOPIC STATIC DIELECTRIC TENSOR (including local field effects in DFT)
 ------------------------------------------------------
           1.735151     0.000080     0.000000
           0.000447     1.735056    -0.000000
           0.000000    -0.000000     1.211039
 ------------------------------------------------------


 PIEZOELECTRIC TENSOR  for field in x, y, z        (e  Angst)
          XX          YY          ZZ          XY          YZ          ZX
  --------------------------------------------------------------------------------
  x     1.33229    -1.33231    -0.00000    -0.03196     0.00002    -0.00001
  y     0.02793    -0.02776     0.00005    -1.32346    -0.00000    -0.00000
  z     0.00001     0.00002     0.00010    -0.00000    -0.00012    -0.00000

 PIEZOELECTRIC TENSOR  for field in x, y, z        (C/m^2)
          XX          YY          ZZ          XY          YZ          ZX
  --------------------------------------------------------------------------------
  x     0.33344    -0.33344    -0.00000    -0.00800     0.00000    -0.00000
  y     0.00699    -0.00695     0.00001    -0.33123    -0.00000    -0.00000
  z     0.00000     0.00001     0.00002    -0.00000    -0.00003    -0.00000
 
 BORN EFFECTIVE CHARGES (in e, cummulative output)
 -------------------------------------------------
 ion    1
    1    -0.03293     1.37432    -0.00000
    2    -1.36535     0.02905    -0.00000
    3     0.00001    -0.00001     0.00007
 ion    2
    1     0.03293    -1.37432     0.00000
    2     1.36535    -0.02905     0.00000
    3    -0.00001     0.00001    -0.00007


--------------------------------------------------------------------------------------------------------


     LOOP+:  cpu time    9.6695: real time   30.1638
    4ORBIT:  cpu time    0.0000: real time    0.0000

 total amount of memory used by VASP MPI-rank0    32837. kBytes
=======================================================================

   base      :      30000. kBytes
   nonlr-proj:        208. kBytes
   fftplans  :       1526. kBytes
   grid      :        907. kBytes
   one-center:          6. kBytes
   wavefun   :        190. kBytes
 
  
  
 General timing and accounting informations for this job:
 ========================================================
  
                  Total CPU time used (sec):       11.243
                            User time (sec):       10.120
                          System time (sec):        1.123
                         Elapsed time (sec):       33.136
  
                   Maximum memory used (kb):      298620.
                   Average memory used (kb):           0.
  
                          Minor page faults:        64682
                          Major page faults:            0
                 Voluntary context switches:        13570
