 vasp.5.4.4.18Apr17-6-g9f103f2a35 (build May 02 2017 19:20:32) complex          
  
 executed on    fermion-Intel-MKL date 2017.12.10  16:47:12
 running on    7 total cores
 distrk:  each k-point on    7 cores,    1 groups
 distr:  one band on NCORES_PER_BAND=   1 cores,    7 groups


--------------------------------------------------------------------------------------------------------


 INCAR:
 POTCAR:   PAW_PBE C 08Apr2002                    

 ----------------------------------------------------------------------------- 
|                                                                             |
|           W    W    AA    RRRRR   N    N  II  N    N   GGGG   !!!           |
|           W    W   A  A   R    R  NN   N  II  NN   N  G    G  !!!           |
|           W    W  A    A  R    R  N N  N  II  N N  N  G       !!!           |
|           W WW W  AAAAAA  RRRRR   N  N N  II  N  N N  G  GGG   !            |
|           WW  WW  A    A  R   R   N   NN  II  N   NN  G    G                |
|           W    W  A    A  R    R  N    N  II  N    N   GGGG   !!!           |
|                                                                             |
|      For optimal performance we recommend to set                            |
|        NCORE= 4 - approx SQRT( number of cores)                             |
|      NCORE specifies how many cores store one orbital (NPAR=cpu/NCORE).     |
|      This setting can  greatly improve the performance of VASP for DFT.     |
|      The default,   NCORE=1            might be grossly inefficient         |
|      on modern multi-core architectures or massively parallel machines.     |
|      Do your own testing !!!!                                               |
|      Unfortunately you need to use the default for GW and RPA calculations. |
|      (for HF NCORE is supported but not extensively tested yet)             |
|                                                                             |
 ----------------------------------------------------------------------------- 

 POTCAR:   PAW_PBE C 08Apr2002                    
   VRHFIN =C: s2p2                                                              
   LEXCH  = PE                                                                  
   EATOM  =   147.1560 eV,   10.8157 Ry                                         
                                                                                
   TITEL  = PAW_PBE C 08Apr2002                                                 
   LULTRA =        F    use ultrasoft PP ?                                      
   IUNSCR =        0    unscreen: 0-lin 1-nonlin 2-no                           
   RPACOR =     .000    partial core radius                                     
   POMASS =   12.011; ZVAL   =    4.000    mass and valenz                      
   RCORE  =    1.500    outmost cutoff radius                                   
   RWIGS  =    1.630; RWIGS  =     .863    wigner-seitz radius (au A)           
   ENMAX  =  400.000; ENMIN  =  300.000 eV                                      
   ICORE  =        2    local potential                                         
   LCOR   =        T    correct aug charges                                     
   LPAW   =        T    paw PP                                                  
   EAUG   =  644.873                                                            
   DEXC   =     .000                                                            
   RMAX   =    2.266    core radius for proj-oper                               
   RAUG   =    1.300    factor for augmentation sphere                          
   RDEP   =    1.501    radius for radial grids                                 
   RDEPT  =    1.300    core radius for aug-charge                              
   QCUT   =   -5.516; QGAM   =   11.032    optimization parameters              
                                                                                
   Description                                                                  
     l     E      TYP  RCUT    TYP  RCUT                                        
     0   .000     23  1.200                                                     
     0   .000     23  1.200                                                     
     1   .000     23  1.500                                                     
     1  2.500     23  1.500                                                     
     2   .000      7  1.500                                                     
  local pseudopotential read in
  atomic valenz-charges read in
  non local Contribution for L=           0  read in
    real space projection operators read in
  non local Contribution for L=           0  read in
    real space projection operators read in
  non local Contribution for L=           1  read in
    real space projection operators read in
  non local Contribution for L=           1  read in
    real space projection operators read in
    PAW grid and wavefunctions read in
 
   number of l-projection  operators is LMAX  =           4
   number of lm-projection operators is LMMAX =           8
 

 ----------------------------------------------------------------------------- 
|                                                                             |
|  ADVICE TO THIS USER RUNNING 'VASP/VAMP'   (HEAR YOUR MASTER'S VOICE ...):  |
|                                                                             |
|      You have a (more or less) 'small supercell' and for smaller cells      |
|      it is recommended  to use the reciprocal-space projection scheme!      |
|      The real space optimization is not  efficient for small cells and it   |
|      is also less accurate ...                                              |
|      Therefore set LREAL=.FALSE. in the  INCAR file                         |
|                                                                             |
 ----------------------------------------------------------------------------- 

 Optimization of the real space projectors (new method)

 maximal supplied QI-value         = 25.13
 optimisation between [QCUT,QGAM] = [ 10.05, 20.36] = [ 28.30,116.06] Ry 
 Optimized for a Real-space Cutoff    1.30 Angstroem

   l    n(q)    QCUT    max X(q) W(low)/X(q) W(high)/X(q)  e(spline) 
   0      8    10.053     5.582    0.43E-04    0.44E-04    0.61E-07
   0      8    10.053    69.432    0.49E-03    0.71E-03    0.18E-06
   1      7    10.053     2.780    0.78E-04    0.13E-03    0.11E-06
   1      7    10.053     4.549    0.23E-03    0.19E-03    0.20E-06
 PAW_PBE C 08Apr2002                    :
 energy of atom  1       EATOM= -147.1560
 kinetic energy error for atom=    0.0288 (will be added to EATOM!!)
 
 
 POSCAR: OUTCAR.0001.+1.out 1.0e-02              
  positions in cartesian coordinates
  No initial velocities read in
 exchange correlation table for  LEXCH =        8
   RHO(1)=    0.500       N(1)  =     2000
   RHO(2)=  100.500       N(2)  =     4000
 


--------------------------------------------------------------------------------------------------------


 ion  position               nearest neighbor table
   1  1.000  0.000  0.141-   2 1.43   2 1.43   2 1.43
   2  0.333  0.667  0.142-   1 1.43   1 1.43   1 1.43
 

IMPORTANT INFORMATION: All symmetrisations will be switched off!
NOSYMM: (Re-)initialisation of all symmetry stuff for point group C_1.

 
 
 KPOINTS: K-Points                                

Automatic generation of k-mesh.
Space group operators:
 irot       det(A)        alpha          n_x          n_y          n_z        tau_x        tau_y        tau_z
    1     1.000000     0.000000     1.000000     0.000000     0.000000     0.000000     0.000000     0.000000
 
 Subroutine IBZKPT returns following result:
 ===========================================
 
 Found      5 irreducible k-points:
 
 Following reciprocal coordinates:
            Coordinates               Weight
  0.000000  0.000000  0.000000      1.000000
  0.333333  0.000000  0.000000      2.000000
  0.000000  0.333333  0.000000      2.000000
  0.333333  0.333333  0.000000      2.000000
 -0.333333  0.333333  0.000000      2.000000
 
 Following cartesian coordinates:
            Coordinates               Weight
  0.000000  0.000000  0.000000      1.000000
  0.134303  0.077540 -0.000000      2.000000
  0.000000  0.155080 -0.000000      2.000000
  0.134303  0.232620 -0.000000      2.000000
 -0.134303  0.077540  0.000000      2.000000
 
 
 Subroutine IBZKPT_HF returns following result:
 ==============================================
 
 Found      9 k-points in 1st BZ
 the following      9 k-points will be used (e.g. in the exchange kernel)
 Following reciprocal coordinates:   # in IRBZ
  0.000000  0.000000  0.000000    0.11111111   1 t-inv F
  0.333333  0.000000  0.000000    0.11111111   2 t-inv F
  0.000000  0.333333  0.000000    0.11111111   3 t-inv F
  0.333333  0.333333  0.000000    0.11111111   4 t-inv F
 -0.333333  0.333333  0.000000    0.11111111   5 t-inv F
 -0.333333 -0.000000 -0.000000    0.11111111   2 t-inv T
  0.000000 -0.333333 -0.000000    0.11111111   3 t-inv T
 -0.333333 -0.333333 -0.000000    0.11111111   4 t-inv T
  0.333333 -0.333333  0.000000    0.11111111   5 t-inv T


--------------------------------------------------------------------------------------------------------




 Dimension of arrays:
   k-points           NKPTS =      5   k-points in BZ     NKDIM =      5   number of bands    NBANDS=     14
   number of dos      NEDOS =    301   number of ions     NIONS =      2
   non local maximal  LDIM  =      4   non local SUM 2l+1 LMDIM =      8
   total plane-waves  NPLWV =   8640
   max r-space proj   IRMAX =   1295   max aug-charges    IRDMAX=  12939
   dimension x,y,z NGX =    12 NGY =   12 NGZ =   60
   dimension x,y,z NGXF=    24 NGYF=   24 NGZF=  120
   support grid    NGXF=    48 NGYF=   48 NGZF=  240
   ions per type =               2
   NGX,Y,Z   is equivalent  to a cutoff of   8.04,  8.04,  8.31 a.u.
   NGXF,Y,Z  is equivalent  to a cutoff of  16.08, 16.08, 16.62 a.u.

 SYSTEM =  raman                                   
 POSCAR =  OUTCAR.0001.+1.out 1.0e-02              

 Startparameter for this run:
   NWRITE =      3    write-flag & timer
   PREC   = n         normal or accurate (medium, high low for compatibility)
   ISTART =      0    job   : 0-new  1-cont  2-samecut
   ICHARG =      2    charge: 1-file 2-atom 10-const
   ISPIN  =      1    spin polarized calculation?
   LNONCOLLINEAR =      F non collinear calculations
   LSORBIT =      F    spin-orbit coupling
   INIWAV =      1    electr: 0-lowe 1-rand  2-diag
   LASPH  =      F    aspherical Exc in radial PAW
   METAGGA=      F    non-selfconsistent MetaGGA calc.

 Electronic Relaxation 1
   ENCUT  =  400.0 eV  29.40 Ry    5.42 a.u.   4.05  4.05 19.57*2*pi/ulx,y,z
   ENINI  =  400.0     initial cutoff
   ENAUG  =  644.9 eV  augmentation charge cutoff
   NELM   =     60;   NELMIN=  4; NELMDL= -5     # of ELM steps 
   EDIFF  = 0.1E-03   stopping-criterion for ELM
   LREAL  =      T    real-space projection
   NLSPLINE    = F    spline interpolate recip. space projectors
   LCOMPAT=      F    compatible to vasp.4.4
   GGA_COMPAT  = T    GGA compatible to vasp.4.4-vasp.4.6
   LMAXPAW     = -100 max onsite density
   LMAXMIX     =    2 max onsite mixed and CHGCAR
   VOSKOWN=      0    Vosko Wilk Nusair interpolation
   ROPT   =   -0.00050
 Ionic relaxation
   EDIFFG = 0.1E-02   stopping-criterion for IOM
   NSW    =      0    number of steps for IOM
   NBLOCK =      1;   KBLOCK =      1    inner block; outer block 
   IBRION =     -1    ionic relax: 0-MD 1-quasi-New 2-CG
   NFREE  =      0    steps in history (QN), initial steepest desc. (CG)
   ISIF   =      2    stress and relaxation
   IWAVPR =     10    prediction:  0-non 1-charg 2-wave 3-comb
   ISYM   =      0    0-nonsym 1-usesym 2-fastsym
   LCORR  =      T    Harris-Foulkes like correction to forces

   POTIM  = 0.5000    time-step for ionic-motion
   TEIN   =    0.0    initial temperature
   TEBEG  =    0.0;   TEEND  =   0.0 temperature during run
   SMASS  =  -3.00    Nose mass-parameter (am)
   estimated Nose-frequenzy (Omega)   =  0.10E-29 period in steps =****** mass=  -0.141E-27a.u.
   SCALEE = 1.0000    scale energy and forces
   NPACO  =    256;   APACO  = 16.0  distance and # of slots for P.C.
   PSTRESS=    0.0 pullay stress

  Mass of Ions in am
   POMASS =  12.01
  Ionic Valenz
   ZVAL   =   4.00
  Atomic Wigner-Seitz radii
   RWIGS  =  -1.00
  virtual crystal weights 
   VCA    =   1.00
   NELECT =       8.0000    total number of electrons
   NUPDOWN=      -1.0000    fix difference up-down

 DOS related values:
   EMIN   =  10.00;   EMAX   =-10.00  energy-range for DOS
   EFERMI =   0.00
   ISMEAR =     1;   SIGMA  =   0.20  broadening in eV -4-tet -1-fermi 0-gaus

 Electronic relaxation 2 (details)
   IALGO  =     38    algorithm
   LDIAG  =      T    sub-space diagonalisation (order eigenvalues)
   LSUBROT=      F    optimize rotation matrix (better conditioning)
   TURBO    =      0    0=normal 1=particle mesh
   IRESTART =      0    0=no restart 2=restart with 2 vectors
   NREBOOT  =      0    no. of reboots
   NMIN     =      0    reboot dimension
   EREF     =   0.00    reference energy to select bands
   IMIX   =      4    mixing-type and parameters
     AMIX     =   0.40;   BMIX     =  1.00
     AMIX_MAG =   1.60;   BMIX_MAG =  1.00
     AMIN     =   0.10
     WC   =   100.;   INIMIX=   1;  MIXPRE=   1;  MAXMIX= -45

 Intra band minimization:
   WEIMIN = 0.0000     energy-eigenvalue tresh-hold
   EBREAK =  0.18E-05  absolut break condition
   DEPER  =   0.30     relativ break condition  

   TIME   =   0.40     timestep for ELM

  volume/ion in A,a.u.               =      32.01       216.01
  Fermi-wavevector in a.u.,A,eV,Ry     =   0.818475  1.546694  9.114571  0.669902
  Thomas-Fermi vector in A             =   1.929109
 
 Write flags
   LWAVE        =      F    write WAVECAR
   LDOWNSAMPLE  =      F    k-point downsampling of WAVECAR
   LCHARG       =      F    write CHGCAR
   LVTOT        =      F    write LOCPOT, total local potential
   LVHAR        =      F    write LOCPOT, Hartree potential only
   LELF         =      F    write electronic localiz. function (ELF)
   LORBIT       =      0    0 simple, 1 ext, 2 COOP (PROOUT), +10 PAW based schemes


 Dipole corrections
   LMONO  =      F    monopole corrections only (constant potential shift)
   LDIPOL =      F    correct potential (dipole corrections)
   IDIPOL =      0    1-x, 2-y, 3-z, 4-all directions 
   EPSILON=  1.0000000 bulk dielectric constant

 Exchange correlation treatment:
   GGA     =    --    GGA type
   LEXCH   =     8    internal setting for exchange type
   VOSKOWN=      0    Vosko Wilk Nusair interpolation
   LHFCALC =     F    Hartree Fock is set to
   LHFONE  =     F    Hartree Fock one center treatment
   AEXX    =    0.0000 exact exchange contribution

 Linear response parameters
   LEPSILON=     T    determine dielectric tensor
   LRPA    =     F    only Hartree local field effects (RPA)
   LNABLA  =     F    use nabla operator in PAW spheres
   LVEL    =     F    velocity operator in full k-point grid
   LINTERFAST=   F  fast interpolation
   KINTER  =     0    interpolate to denser k-point grid
   CSHIFT  =0.1000    complex shift for real part using Kramers Kronig
   OMEGAMAX=  -1.0    maximum frequency
   DEG_THRESHOLD= 0.2000000E-02 threshold for treating states as degnerate
   RTIME   =   -0.100 relaxation time in fs
  (WPLASMAI=    0.000 imaginary part of plasma frequency in eV, 0.658/RTIME)
   DFIELD  = 0.0000000 0.0000000 0.0000000 field for delta impulse in time
 
 Orbital magnetization related:
   ORBITALMAG=     F  switch on orbital magnetization
   LCHIMAG   =     F  perturbation theory with respect to B field
   DQ        =  0.001000  dq finite difference perturbation B field
   LLRAUG    =     F  two centre corrections for induced B field



--------------------------------------------------------------------------------------------------------


 Static calculation
 charge density and potential will be updated during run
 non-spin polarized calculation
 Variant of blocked Davidson
 Davidson routine will perform the subspace rotation
 perform sub-space diagonalisation
    after iterative eigenvector-optimisation
 modified Broyden-mixing scheme, WC =      100.0
 initial mixing is a Kerker type mixing with AMIX =  0.4000 and BMIX =      1.0000
 Hartree-type preconditioning will be used
 using additional bands           10
 real space projection scheme for non local part
 calculate Harris-corrections to forces 
   (improved forces if not selfconsistent)
 use gradient corrections 
 use of overlap-Matrix (Vanderbilt PP)
 Methfessel and Paxton  Order N= 1 SIGMA  =   0.20


--------------------------------------------------------------------------------------------------------


  energy-cutoff  :      400.00
  volume of cell :       64.02
      direct lattice vectors                 reciprocal lattice vectors
     2.481948769  0.000000000  0.000000000     0.402909203  0.232619737 -0.000000000
    -1.240974385  2.149430685  0.000000000     0.000000000  0.465239473 -0.000000000
     0.000000000  0.000000000 12.000000000     0.000000000  0.000000000  0.083333333

  length of vectors
     2.481948769  2.481948769 12.000000000     0.465239473  0.465239473  0.083333333


 
 k-points in units of 2pi/SCALE and weight: K-Points                                
   0.00000000  0.00000000  0.00000000       0.111
   0.13430307  0.07753991 -0.00000000       0.222
   0.00000000  0.15507982 -0.00000000       0.222
   0.13430307  0.23261974 -0.00000000       0.222
  -0.13430307  0.07753991  0.00000000       0.222
 
 k-points in reciprocal lattice and weights: K-Points                                
   0.00000000  0.00000000  0.00000000       0.111
   0.33333333  0.00000000  0.00000000       0.222
   0.00000000  0.33333333  0.00000000       0.222
   0.33333333  0.33333333  0.00000000       0.222
  -0.33333333  0.33333333  0.00000000       0.222
 
 position of ions in fractional coordinates (direct lattice) 
   0.99999940  0.00000060  0.14108071
   0.33333059  0.66666943  0.14225922
 
 position of ions in cartesian coordinates  (Angst):
   2.48194655  0.00000128  1.69296850
  -0.00001024  1.43295972  1.70711063
 


--------------------------------------------------------------------------------------------------------


 k-point  1 :   0.0000 0.0000 0.0000  plane waves:    1125
 k-point  2 :   0.3333 0.0000 0.0000  plane waves:    1167
 k-point  3 :   0.0000 0.3333 0.0000  plane waves:    1167
 k-point  4 :   0.3333 0.3333 0.0000  plane waves:    1146
 k-point  5 :  -0.3333 0.3333 0.0000  plane waves:    1167

 maximum and minimum number of plane-waves per node :      1167     1125

 maximum number of plane-waves:      1167
 maximum index in each direction: 
   IXMAX=    4   IYMAX=    4   IZMAX=   19
   IXMIN=   -4   IYMIN=   -4   IZMIN=  -19


 serial   3D FFT for wavefunctions
 parallel 3D FFT for charge:
    minimum data exchange during FFTs selected (reduces bandwidth)


 total amount of memory used by VASP MPI-rank0    32837. kBytes
=======================================================================

   base      :      30000. kBytes
   nonlr-proj:        208. kBytes
   fftplans  :       1526. kBytes
   grid      :        907. kBytes
   one-center:          6. kBytes
   wavefun   :        190. kBytes
 
     INWAV:  cpu time    0.0000: real time    0.0001
 Broyden mixing: mesh for mixing (old mesh)
   NGX =  9   NGY =  9   NGZ = 39
  (NGX  = 24   NGY  = 24   NGZ  =120)
  gives a total of   3159 points

 initial charge density was supplied:
 charge density of overlapping atoms calculated
 number of electron       8.0000000 magnetization 
 keeping initial charge density in first step


--------------------------------------------------------------------------------------------------------


 Maximum index for non-local projection operator         1188
 Maximum index for augmentation-charges         1865 (set IRDMAX)


--------------------------------------------------------------------------------------------------------


 First call to EWALD:  gamma=   0.443
 Maximum number of real-space cells 5x 5x 1
 Maximum number of reciprocal cells 2x 2x 7

    FEWALD:  cpu time    0.0030: real time    0.0030


----------------------------------------- Iteration    1(   1)  ---------------------------------------


    POTLOK:  cpu time    0.0060: real time    0.0054
    SETDIJ:  cpu time    0.0030: real time    0.0032
     EDDAV:  cpu time    0.1090: real time    0.2965
       DOS:  cpu time    0.0030: real time    0.0026
    --------------------------------------------
      LOOP:  cpu time    0.1220: real time    0.3104

 eigenvalue-minimisations  :   140
 total energy-change (2. order) : 0.1323806E+02  (-0.3578897E+03)
 number of electron       8.0000000 magnetization 
 augmentation part        8.0000000 magnetization 

 Free energy of the ion-electron system (eV)
  ---------------------------------------------------
  alpha Z        PSCENC =         5.09113229
  Ewald energy   TEWEN  =       551.10423270
  -Hartree energ DENC   =      -777.03646551
  -exchange      EXHF   =         0.00000000
  -V(xc)+E(xc)   XCENC  =        27.46668014
  PAW double counting   =        75.66288619      -77.96384553
  entropy T*S    EENTRO =        -0.00983923
  eigenvalues    EBANDS =       -85.33116481
  atomic energy  EATOM  =       294.25444774
  Solvation  Ediel_sol  =         0.00000000
  ---------------------------------------------------
  free energy    TOTEN  =        13.23806398 eV

  energy without entropy =       13.24790321  energy(sigma->0) =       13.24134372


--------------------------------------------------------------------------------------------------------




 average (electrostatic) potential at core
  the test charge radii are     0.6991
  (the norm of the test charge is              1.0000)
       1 -62.8955       2 -62.8955
 
 
 
 E-fermi :   2.6142     XC(G=0):  -3.9368     alpha+bet : -3.1363


 k-point     1 :       0.0000    0.0000    0.0000
  band No.  band energies     occupation 
      1     -24.3038      2.00000
      2     -11.2461      2.00000
      3      -3.8927      2.00000
      4       1.2800      2.00000
      5       2.5319      1.63525
      6       2.9713     -0.02998
      7       3.8778     -0.00000
      8       6.9280     -0.00000
      9       8.2347      0.00000
     10      11.0939      0.00000
     11      14.0208      0.00000
     12      15.7581      0.00000
     13      20.6819      0.00000
     14      21.5973      0.00000

 k-point     2 :       0.3333    0.0000    0.0000
  band No.  band energies     occupation 
      1     -21.8301      2.00000
      2     -11.5816      2.00000
      3      -7.4178      2.00000
      4      -5.5119      2.00000
      5       5.1345     -0.00000
      6       6.6412     -0.00000
      7       7.5063     -0.00000
      8      10.0324      0.00000
      9      11.6780      0.00000
     10      13.7535      0.00000
     11      16.8946      0.00000
     12      17.9469      0.00000
     13      20.7085      0.00000
     14      25.0052      0.00000

 k-point     3 :       0.0000    0.3333    0.0000
  band No.  band energies     occupation 
      1     -21.8336      2.00000
      2     -10.3894      2.00000
      3      -7.6470      2.00000
      4      -3.2756      2.00000
      5       5.1929     -0.00000
      6       6.4852     -0.00000
      7       7.4813     -0.00000
      8       9.9507      0.00000
      9      11.7638      0.00000
     10      13.4382      0.00000
     11      16.3413      0.00000
     12      18.4031      0.00000
     13      18.9541      0.00000
     14      20.3008      0.00000

 k-point     4 :       0.3333    0.3333    0.0000
  band No.  band energies     occupation 
      1     -16.7351      2.00000
      2     -14.8446      2.00000
      3     -13.0262      2.00000
      4       0.0327      2.00000
      5       2.9333     -0.04656
      6      12.2640      0.00000
      7      13.1417      0.00000
      8      13.5806      0.00000
      9      14.2752      0.00000
     10      14.8682      0.00000
     11      16.2059      0.00000
     12      17.6106      0.00000
     13      19.4846      0.00000
     14      21.2870      0.00000

 k-point     5 :      -0.3333    0.3333    0.0000
  band No.  band energies     occupation 
      1     -21.6720      2.00000
      2     -12.5579      2.00000
      3      -7.1761      2.00000
      4       2.5850      1.24393
      5       5.2826     -0.00000
      6       7.1397     -0.00000
      7       7.8926     -0.00000
      8       9.4424      0.00000
      9      12.1178      0.00000
     10      15.3668      0.00000
     11      17.8873      0.00000
     12      19.4799      0.00000
     13      21.9356      0.00000
     14      22.1955      0.00000


--------------------------------------------------------------------------------------------------------


 soft charge-density along one line, spin component           1
         0         1         2         3         4         5         6         7         8         9
 total charge-density along one line
 
 pseudopotential strength for first ion, spin component:           1
 10.479   0.027  -0.000   0.000   0.000   0.000  -0.000  -0.000
  0.027  -0.001   0.000  -0.000  -0.000   0.000  -0.000  -0.000
 -0.000   0.000  -4.631   0.000   0.000  -0.003   0.000   0.000
  0.000  -0.000   0.000  -4.598  -0.000   0.000   0.002  -0.000
  0.000  -0.000   0.000  -0.000  -4.631   0.000  -0.000  -0.003
  0.000   0.000  -0.003   0.000   0.000  -0.776   0.000   0.000
 -0.000  -0.000   0.000   0.002  -0.000   0.000  -0.775  -0.000
 -0.000  -0.000   0.000  -0.000  -0.003   0.000  -0.000  -0.776
 total augmentation occupancy for first ion, spin component:           1
  2.000   0.000   0.000   0.000   0.000   0.000   0.000   0.000
  0.000   0.000   0.000   0.000   0.000   0.000   0.000   0.000
  0.000   0.000   0.667   0.000   0.000   0.000   0.000   0.000
  0.000   0.000   0.000   0.667   0.000   0.000   0.000   0.000
  0.000   0.000   0.000   0.000   0.667   0.000   0.000   0.000
  0.000   0.000   0.000   0.000   0.000   0.000   0.000   0.000
  0.000   0.000   0.000   0.000   0.000   0.000   0.000   0.000
  0.000   0.000   0.000   0.000   0.000   0.000   0.000   0.000


----------------------------------------- Iteration    1(   2)  ---------------------------------------


     EDDAV:  cpu time    0.1340: real time    0.3041
       DOS:  cpu time    0.0000: real time    0.0002
    --------------------------------------------
      LOOP:  cpu time    0.1350: real time    0.3061

 eigenvalue-minimisations  :   224
 total energy-change (2. order) :-0.3200753E+02  (-0.3017529E+02)
 number of electron       8.0000000 magnetization 
 augmentation part        8.0000000 magnetization 

 Free energy of the ion-electron system (eV)
  ---------------------------------------------------
  alpha Z        PSCENC =         5.09113229
  Ewald energy   TEWEN  =       551.10423270
  -Hartree energ DENC   =      -777.03646551
  -exchange      EXHF   =         0.00000000
  -V(xc)+E(xc)   XCENC  =        27.46668014
  PAW double counting   =        75.66288619      -77.96384553
  entropy T*S    EENTRO =        -0.02278896
  eigenvalues    EBANDS =      -117.32574161
  atomic energy  EATOM  =       294.25444774
  Solvation  Ediel_sol  =         0.00000000
  ---------------------------------------------------
  free energy    TOTEN  =       -18.76946254 eV

  energy without entropy =      -18.74667359  energy(sigma->0) =      -18.76186622


--------------------------------------------------------------------------------------------------------




 average (electrostatic) potential at core
  the test charge radii are     0.6991
  (the norm of the test charge is              1.0000)
       1 -62.8955       2 -62.8955
 
 
 
 E-fermi :  -4.9243     XC(G=0):  -3.9368     alpha+bet : -3.1363


 k-point     1 :       0.0000    0.0000    0.0000
  band No.  band energies     occupation 
      1     -25.0207      2.00000
      2     -12.1670      2.00000
      3      -9.4465      2.00000
      4      -9.2623      2.00000
      5       1.2651      0.00000
      6       2.4761      0.00000
      7       2.5662      0.00000
      8       2.6016      0.00000
      9       3.6361      0.00000
     10       5.8946      0.00000
     11       6.4850      0.00000
     12       6.5402      0.00000
     13       7.7158      0.00000
     14      12.5935      0.00000

 k-point     2 :       0.3333    0.0000    0.0000
  band No.  band energies     occupation 
      1     -22.5538      2.00000
      2     -15.5807      2.00000
      3     -11.9892      2.00000
      4      -9.3262      2.00000
      5      -0.1770     -0.00000
      6       2.0359      0.00000
      7       4.7299      0.00000
      8       6.0469      0.00000
      9       7.1864      0.00000
     10       9.7199      0.00000
     11      10.0294      0.00000
     12      10.5958      0.00000
     13      11.1632      0.00000
     14      13.8359      0.00000

 k-point     3 :       0.0000    0.3333    0.0000
  band No.  band energies     occupation 
      1     -22.5542      2.00000
      2     -15.5699      2.00000
      3     -11.9863      2.00000
      4      -9.3267      2.00000
      5      -0.1596     -0.00000
      6       2.0641      0.00000
      7       4.7306      0.00000
      8       6.0436      0.00000
      9       7.1875      0.00000
     10       9.7253      0.00000
     11       9.8979      0.00000
     12      10.5766      0.00000
     13      11.1809      0.00000
     14      13.7932      0.00000

 k-point     4 :       0.3333    0.3333    0.0000
  band No.  band energies     occupation 
      1     -18.4578      2.00000
      2     -18.4301      2.00000
      3     -16.2948      2.00000
      4      -4.9596      1.29380
      5      -4.8890      0.70620
      6       7.3175      0.00000
      7       8.3098      0.00000
      8       9.4430      0.00000
      9      10.3494      0.00000
     10      12.6041      0.00000
     11      12.9861      0.00000
     12      13.3702      0.00000
     13      13.4577      0.00000
     14      14.3285      0.00000

 k-point     5 :      -0.3333    0.3333    0.0000
  band No.  band energies     occupation 
      1     -22.5398      2.00000
      2     -15.5379      2.00000
      3     -11.6783      2.00000
      4      -9.2740      2.00000
      5       0.1986     -0.00000
      6       2.7560      0.00000
      7       4.7486      0.00000
      8       6.1283      0.00000
      9       7.2196      0.00000
     10       9.8608      0.00000
     11      11.2729      0.00000
     12      14.0541      0.00000
     13      15.0905      0.00000
     14      16.7641      0.00000


--------------------------------------------------------------------------------------------------------


 soft charge-density along one line, spin component           1
         0         1         2         3         4         5         6         7         8         9
 total charge-density along one line
 
 pseudopotential strength for first ion, spin component:           1
 10.479   0.027  -0.000   0.000   0.000   0.000  -0.000  -0.000
  0.027  -0.001   0.000  -0.000  -0.000   0.000  -0.000  -0.000
 -0.000   0.000  -4.631   0.000   0.000  -0.003   0.000   0.000
  0.000  -0.000   0.000  -4.598  -0.000   0.000   0.002  -0.000
  0.000  -0.000   0.000  -0.000  -4.631   0.000  -0.000  -0.003
  0.000   0.000  -0.003   0.000   0.000  -0.776   0.000   0.000
 -0.000  -0.000   0.000   0.002  -0.000   0.000  -0.775  -0.000
 -0.000  -0.000   0.000  -0.000  -0.003   0.000  -0.000  -0.776
 total augmentation occupancy for first ion, spin component:           1
  2.000   0.000   0.000   0.000   0.000   0.000   0.000   0.000
  0.000   0.000   0.000   0.000   0.000   0.000   0.000   0.000
  0.000   0.000   0.667   0.000   0.000   0.000   0.000   0.000
  0.000   0.000   0.000   0.667   0.000   0.000   0.000   0.000
  0.000   0.000   0.000   0.000   0.667   0.000   0.000   0.000
  0.000   0.000   0.000   0.000   0.000   0.000   0.000   0.000
  0.000   0.000   0.000   0.000   0.000   0.000   0.000   0.000
  0.000   0.000   0.000   0.000   0.000   0.000   0.000   0.000


----------------------------------------- Iteration    1(   3)  ---------------------------------------


     EDDAV:  cpu time    0.1280: real time    0.3208
       DOS:  cpu time    0.0010: real time    0.0002
    --------------------------------------------
      LOOP:  cpu time    0.1300: real time    0.3235

 eigenvalue-minimisations  :   182
 total energy-change (2. order) :-0.3756025E+00  (-0.3733278E+00)
 number of electron       8.0000000 magnetization 
 augmentation part        8.0000000 magnetization 

 Free energy of the ion-electron system (eV)
  ---------------------------------------------------
  alpha Z        PSCENC =         5.09113229
  Ewald energy   TEWEN  =       551.10423270
  -Hartree energ DENC   =      -777.03646551
  -exchange      EXHF   =         0.00000000
  -V(xc)+E(xc)   XCENC  =        27.46668014
  PAW double counting   =        75.66288619      -77.96384553
  entropy T*S    EENTRO =        -0.02507508
  eigenvalues    EBANDS =      -117.69905796
  atomic energy  EATOM  =       294.25444774
  Solvation  Ediel_sol  =         0.00000000
  ---------------------------------------------------
  free energy    TOTEN  =       -19.14506502 eV

  energy without entropy =      -19.11998994  energy(sigma->0) =      -19.13670666


--------------------------------------------------------------------------------------------------------




 average (electrostatic) potential at core
  the test charge radii are     0.6991
  (the norm of the test charge is              1.0000)
       1 -62.8955       2 -62.8955
 
 
 
 E-fermi :  -4.9990     XC(G=0):  -3.9368     alpha+bet : -3.1363


 k-point     1 :       0.0000    0.0000    0.0000
  band No.  band energies     occupation 
      1     -25.0232      2.00000
      2     -12.1725      2.00000
      3      -9.4683      2.00000
      4      -9.4670      2.00000
      5       1.2632      0.00000
      6       2.3021      0.00000
      7       2.3027      0.00000
      8       2.5879      0.00000
      9       3.6340      0.00000
     10       5.5844      0.00000
     11       6.3272      0.00000
     12       6.4899      0.00000
     13       7.7070      0.00000
     14      12.5220      0.00000

 k-point     2 :       0.3333    0.0000    0.0000
  band No.  band energies     occupation 
      1     -22.5551      2.00000
      2     -15.5955      2.00000
      3     -12.0135      2.00000
      4      -9.3342      2.00000
      5      -0.2616     -0.00000
      6       1.9563      0.00000
      7       4.7254      0.00000
      8       6.0322      0.00000
      9       7.1840      0.00000
     10       9.7025      0.00000
     11       9.7577      0.00000
     12      10.4126      0.00000
     13      11.1441      0.00000
     14      13.7332      0.00000

 k-point     3 :       0.0000    0.3333    0.0000
  band No.  band energies     occupation 
      1     -22.5551      2.00000
      2     -15.5954      2.00000
      3     -12.0135      2.00000
      4      -9.3342      2.00000
      5      -0.2615     -0.00000
      6       1.9572      0.00000
      7       4.7254      0.00000
      8       6.0322      0.00000
      9       7.1840      0.00000
     10       9.7028      0.00000
     11       9.7548      0.00000
     12      10.4129      0.00000
     13      11.1448      0.00000
     14      13.7334      0.00000

 k-point     4 :       0.3333    0.3333    0.0000
  band No.  band energies     occupation 
      1     -18.4701      2.00000
      2     -18.4700      2.00000
      3     -16.3237      2.00000
      4      -4.9991      1.00075
      5      -4.9989      0.99925
      6       7.2098      0.00000
      7       7.9345      0.00000
      8       7.9571      0.00000
      9       9.8788      0.00000
     10      12.4751      0.00000
     11      12.5344      0.00000
     12      13.1478      0.00000
     13      13.1742      0.00000
     14      13.6473      0.00000

 k-point     5 :      -0.3333    0.3333    0.0000
  band No.  band energies     occupation 
      1     -22.5552      2.00000
      2     -15.5960      2.00000
      3     -12.0128      2.00000
      4      -9.3342      2.00000
      5      -0.2619     -0.00000
      6       1.9562      0.00000
      7       4.7254      0.00000
      8       6.0323      0.00000
      9       7.1840      0.00000
     10       9.7030      0.00000
     11       9.8402      0.00000
     12      10.4362      0.00000
     13      11.1460      0.00000
     14      13.7529      0.00000


--------------------------------------------------------------------------------------------------------


 soft charge-density along one line, spin component           1
         0         1         2         3         4         5         6         7         8         9
 total charge-density along one line
 
 pseudopotential strength for first ion, spin component:           1
 10.479   0.027  -0.000   0.000   0.000   0.000  -0.000  -0.000
  0.027  -0.001   0.000  -0.000  -0.000   0.000  -0.000  -0.000
 -0.000   0.000  -4.631   0.000   0.000  -0.003   0.000   0.000
  0.000  -0.000   0.000  -4.598  -0.000   0.000   0.002  -0.000
  0.000  -0.000   0.000  -0.000  -4.631   0.000  -0.000  -0.003
  0.000   0.000  -0.003   0.000   0.000  -0.776   0.000   0.000
 -0.000  -0.000   0.000   0.002  -0.000   0.000  -0.775  -0.000
 -0.000  -0.000   0.000  -0.000  -0.003   0.000  -0.000  -0.776
 total augmentation occupancy for first ion, spin component:           1
  2.000   0.000   0.000   0.000   0.000   0.000   0.000   0.000
  0.000   0.000   0.000   0.000   0.000   0.000   0.000   0.000
  0.000   0.000   0.667   0.000   0.000   0.000   0.000   0.000
  0.000   0.000   0.000   0.667   0.000   0.000   0.000   0.000
  0.000   0.000   0.000   0.000   0.667   0.000   0.000   0.000
  0.000   0.000   0.000   0.000   0.000   0.000   0.000   0.000
  0.000   0.000   0.000   0.000   0.000   0.000   0.000   0.000
  0.000   0.000   0.000   0.000   0.000   0.000   0.000   0.000


----------------------------------------- Iteration    1(   4)  ---------------------------------------


     EDDAV:  cpu time    0.1540: real time    0.3155
       DOS:  cpu time    0.0010: real time    0.0006
    --------------------------------------------
      LOOP:  cpu time    0.1550: real time    0.3180

 eigenvalue-minimisations  :   168
 total energy-change (2. order) :-0.4267654E-03  (-0.4267652E-03)
 number of electron       8.0000000 magnetization 
 augmentation part        8.0000000 magnetization 

 Free energy of the ion-electron system (eV)
  ---------------------------------------------------
  alpha Z        PSCENC =         5.09113229
  Ewald energy   TEWEN  =       551.10423270
  -Hartree energ DENC   =      -777.03646551
  -exchange      EXHF   =         0.00000000
  -V(xc)+E(xc)   XCENC  =        27.46668014
  PAW double counting   =        75.66288619      -77.96384553
  entropy T*S    EENTRO =        -0.02507508
  eigenvalues    EBANDS =      -117.69948472
  atomic energy  EATOM  =       294.25444774
  Solvation  Ediel_sol  =         0.00000000
  ---------------------------------------------------
  free energy    TOTEN  =       -19.14549178 eV

  energy without entropy =      -19.12041670  energy(sigma->0) =      -19.13713342


--------------------------------------------------------------------------------------------------------




 average (electrostatic) potential at core
  the test charge radii are     0.6991
  (the norm of the test charge is              1.0000)
       1 -62.8955       2 -62.8955
 
 
 
 E-fermi :  -4.9991     XC(G=0):  -3.9368     alpha+bet : -3.1363


 k-point     1 :       0.0000    0.0000    0.0000
  band No.  band energies     occupation 
      1     -25.0232      2.00000
      2     -12.1726      2.00000
      3      -9.4686      2.00000
      4      -9.4673      2.00000
      5       1.2632      0.00000
      6       2.3005      0.00000
      7       2.3014      0.00000
      8       2.5878      0.00000
      9       3.6340      0.00000
     10       5.5814      0.00000
     11       6.3261      0.00000
     12       6.4898      0.00000
     13       7.7069      0.00000
     14      12.5208      0.00000

 k-point     2 :       0.3333    0.0000    0.0000
  band No.  band energies     occupation 
      1     -22.5551      2.00000
      2     -15.5956      2.00000
      3     -12.0136      2.00000
      4      -9.3342      2.00000
      5      -0.2620     -0.00000
      6       1.9560      0.00000
      7       4.7254      0.00000
      8       6.0321      0.00000
      9       7.1839      0.00000
     10       9.7024      0.00000
     11       9.7504      0.00000
     12      10.4092      0.00000
     13      11.1440      0.00000
     14      13.7302      0.00000

 k-point     3 :       0.0000    0.3333    0.0000
  band No.  band energies     occupation 
      1     -22.5551      2.00000
      2     -15.5956      2.00000
      3     -12.0136      2.00000
      4      -9.3342      2.00000
      5      -0.2620     -0.00000
      6       1.9560      0.00000
      7       4.7254      0.00000
      8       6.0321      0.00000
      9       7.1839      0.00000
     10       9.7024      0.00000
     11       9.7499      0.00000
     12      10.4089      0.00000
     13      11.1440      0.00000
     14      13.7300      0.00000

 k-point     4 :       0.3333    0.3333    0.0000
  band No.  band energies     occupation 
      1     -18.4701      2.00000
      2     -18.4700      2.00000
      3     -16.3237      2.00000
      4      -4.9992      1.00059
      5      -4.9990      0.99941
      6       7.2092      0.00000
      7       7.9327      0.00000
      8       7.9329      0.00000
      9       9.8713      0.00000
     10      12.4719      0.00000
     11      12.4737      0.00000
     12      13.1379      0.00000
     13      13.1404      0.00000
     14      13.5243      0.00000

 k-point     5 :      -0.3333    0.3333    0.0000
  band No.  band energies     occupation 
      1     -22.5552      2.00000
      2     -15.5960      2.00000
      3     -12.0128      2.00000
      4      -9.3342      2.00000
      5      -0.2620     -0.00000
      6       1.9557      0.00000
      7       4.7253      0.00000
      8       6.0321      0.00000
      9       7.1839      0.00000
     10       9.7024      0.00000
     11       9.7525      0.00000
     12      10.4080      0.00000
     13      11.1439      0.00000
     14      13.7313      0.00000


--------------------------------------------------------------------------------------------------------


 soft charge-density along one line, spin component           1
         0         1         2         3         4         5         6         7         8         9
 total charge-density along one line
 
 pseudopotential strength for first ion, spin component:           1
 10.479   0.027  -0.000   0.000   0.000   0.000  -0.000  -0.000
  0.027  -0.001   0.000  -0.000  -0.000   0.000  -0.000  -0.000
 -0.000   0.000  -4.631   0.000   0.000  -0.003   0.000   0.000
  0.000  -0.000   0.000  -4.598  -0.000   0.000   0.002  -0.000
  0.000  -0.000   0.000  -0.000  -4.631   0.000  -0.000  -0.003
  0.000   0.000  -0.003   0.000   0.000  -0.776   0.000   0.000
 -0.000  -0.000   0.000   0.002  -0.000   0.000  -0.775  -0.000
 -0.000  -0.000   0.000  -0.000  -0.003   0.000  -0.000  -0.776
 total augmentation occupancy for first ion, spin component:           1
  2.000   0.000   0.000   0.000   0.000   0.000   0.000   0.000
  0.000   0.000   0.000   0.000   0.000   0.000   0.000   0.000
  0.000   0.000   0.667   0.000   0.000   0.000   0.000   0.000
  0.000   0.000   0.000   0.667   0.000   0.000   0.000   0.000
  0.000   0.000   0.000   0.000   0.667   0.000   0.000   0.000
  0.000   0.000   0.000   0.000   0.000   0.000   0.000   0.000
  0.000   0.000   0.000   0.000   0.000   0.000   0.000   0.000
  0.000   0.000   0.000   0.000   0.000   0.000   0.000   0.000


----------------------------------------- Iteration    1(   5)  ---------------------------------------


     EDDAV:  cpu time    0.0970: real time    0.2675
       DOS:  cpu time    0.0000: real time    0.0003
    CHARGE:  cpu time    0.0050: real time    0.0151
    MIXING:  cpu time    0.0010: real time    0.0004
    --------------------------------------------
      LOOP:  cpu time    0.1030: real time    0.2858

 eigenvalue-minimisations  :   154
 total energy-change (2. order) :-0.1666073E-05  (-0.1666112E-05)
 number of electron       8.0000000 magnetization 
 augmentation part        0.2143116 magnetization 

 Broyden mixing:
  rms(total) = 0.54815E+00    rms(broyden)= 0.54809E+00
  rms(prec ) = 0.67461E+00
  weight for this iteration     100.00

 Free energy of the ion-electron system (eV)
  ---------------------------------------------------
  alpha Z        PSCENC =         5.09113229
  Ewald energy   TEWEN  =       551.10423270
  -Hartree energ DENC   =      -777.03646551
  -exchange      EXHF   =         0.00000000
  -V(xc)+E(xc)   XCENC  =        27.46668014
  PAW double counting   =        75.66288619      -77.96384553
  entropy T*S    EENTRO =        -0.02507508
  eigenvalues    EBANDS =      -117.69948639
  atomic energy  EATOM  =       294.25444774
  Solvation  Ediel_sol  =         0.00000000
  ---------------------------------------------------
  free energy    TOTEN  =       -19.14549345 eV

  energy without entropy =      -19.12041837  energy(sigma->0) =      -19.13713509


--------------------------------------------------------------------------------------------------------




 average (electrostatic) potential at core
  the test charge radii are     0.6991
  (the norm of the test charge is              1.0000)
       1 -62.8955       2 -62.8955
 
 
 
 E-fermi :  -4.9991     XC(G=0):  -3.9368     alpha+bet : -3.1363


 k-point     1 :       0.0000    0.0000    0.0000
  band No.  band energies     occupation 
      1     -25.0232      2.00000
      2     -12.1726      2.00000
      3      -9.4686      2.00000
      4      -9.4673      2.00000
      5       1.2632      0.00000
      6       2.3005      0.00000
      7       2.3014      0.00000
      8       2.5878      0.00000
      9       3.6340      0.00000
     10       5.5813      0.00000
     11       6.3261      0.00000
     12       6.4898      0.00000
     13       7.7069      0.00000
     14      12.5207      0.00000

 k-point     2 :       0.3333    0.0000    0.0000
  band No.  band energies     occupation 
      1     -22.5551      2.00000
      2     -15.5956      2.00000
      3     -12.0136      2.00000
      4      -9.3342      2.00000
      5      -0.2620     -0.00000
      6       1.9560      0.00000
      7       4.7254      0.00000
      8       6.0321      0.00000
      9       7.1839      0.00000
     10       9.7024      0.00000
     11       9.7498      0.00000
     12      10.4089      0.00000
     13      11.1440      0.00000
     14      13.7299      0.00000

 k-point     3 :       0.0000    0.3333    0.0000
  band No.  band energies     occupation 
      1     -22.5551      2.00000
      2     -15.5956      2.00000
      3     -12.0136      2.00000
      4      -9.3342      2.00000
      5      -0.2620     -0.00000
      6       1.9560      0.00000
      7       4.7254      0.00000
      8       6.0321      0.00000
      9       7.1839      0.00000
     10       9.7024      0.00000
     11       9.7498      0.00000
     12      10.4088      0.00000
     13      11.1440      0.00000
     14      13.7299      0.00000

 k-point     4 :       0.3333    0.3333    0.0000
  band No.  band energies     occupation 
      1     -18.4701      2.00000
      2     -18.4700      2.00000
      3     -16.3237      2.00000
      4      -4.9992      1.00059
      5      -4.9990      0.99941
      6       7.2092      0.00000
      7       7.9327      0.00000
      8       7.9328      0.00000
      9       9.8712      0.00000
     10      12.4717      0.00000
     11      12.4718      0.00000
     12      13.1373      0.00000
     13      13.1375      0.00000
     14      13.5112      0.00000

 k-point     5 :      -0.3333    0.3333    0.0000
  band No.  band energies     occupation 
      1     -22.5552      2.00000
      2     -15.5960      2.00000
      3     -12.0128      2.00000
      4      -9.3342      2.00000
      5      -0.2620     -0.00000
      6       1.9557      0.00000
      7       4.7253      0.00000
      8       6.0321      0.00000
      9       7.1839      0.00000
     10       9.7024      0.00000
     11       9.7509      0.00000
     12      10.4076      0.00000
     13      11.1439      0.00000
     14      13.7301      0.00000


--------------------------------------------------------------------------------------------------------


 soft charge-density along one line, spin component           1
         0         1         2         3         4         5         6         7         8         9
 total charge-density along one line
 
 pseudopotential strength for first ion, spin component:           1
 10.479   0.027  -0.000   0.000   0.000   0.000  -0.000  -0.000
  0.027  -0.001   0.000  -0.000  -0.000   0.000  -0.000  -0.000
 -0.000   0.000  -4.631   0.000   0.000  -0.003   0.000   0.000
  0.000  -0.000   0.000  -4.598  -0.000   0.000   0.002  -0.000
  0.000  -0.000   0.000  -0.000  -4.631   0.000  -0.000  -0.003
  0.000   0.000  -0.003   0.000   0.000  -0.776   0.000   0.000
 -0.000  -0.000   0.000   0.002  -0.000   0.000  -0.775  -0.000
 -0.000  -0.000   0.000  -0.000  -0.003   0.000  -0.000  -0.776
 total augmentation occupancy for first ion, spin component:           1
  1.494  -0.938   0.000  -0.002  -0.000  -0.000   0.002   0.000
 -0.938   0.739  -0.000  -0.013   0.000   0.000  -0.002  -0.000
  0.000  -0.000   1.289   0.000  -0.000   0.207  -0.000   0.000
 -0.002  -0.013   0.000   1.055  -0.000   0.000   0.077   0.000
 -0.000   0.000  -0.000  -0.000   1.289   0.000  -0.000   0.207
 -0.000   0.000   0.207   0.000   0.000   0.039  -0.000   0.000
  0.002  -0.002  -0.000   0.077  -0.000  -0.000   0.008  -0.000
  0.000  -0.000   0.000   0.000   0.207   0.000  -0.000   0.039


----------------------------------------- Iteration    1(   6)  ---------------------------------------


    POTLOK:  cpu time    0.0050: real time    0.0048
    SETDIJ:  cpu time    0.0030: real time    0.0027
     EDDAV:  cpu time    0.2470: real time    0.3978
       DOS:  cpu time    0.0020: real time    0.0016
    CHARGE:  cpu time    0.0040: real time    0.0050
    MIXING:  cpu time    0.0010: real time    0.0005
    --------------------------------------------
      LOOP:  cpu time    0.2630: real time    0.4147

 eigenvalue-minimisations  :   182
 total energy-change (2. order) : 0.8836678E+00  (-0.8470693E-01)
 number of electron       8.0000000 magnetization 
 augmentation part        0.2053131 magnetization 

 Broyden mixing:
  rms(total) = 0.29091E+00    rms(broyden)= 0.29089E+00
  rms(prec ) = 0.36080E+00
  weight for this iteration     100.00

 eigenvalues of (default mixing * dielectric matrix)
  average eigenvalue GAMMA=   2.0615
  2.0615

 Free energy of the ion-electron system (eV)
  ---------------------------------------------------
  alpha Z        PSCENC =         5.09113229
  Ewald energy   TEWEN  =       551.10423270
  -Hartree energ DENC   =      -787.52807108
  -exchange      EXHF   =         0.00000000
  -V(xc)+E(xc)   XCENC  =        27.95895293
  PAW double counting   =       102.23901866     -104.71488145
  entropy T*S    EENTRO =        -0.02507508
  eigenvalues    EBANDS =      -106.64158239
  atomic energy  EATOM  =       294.25444774
  Solvation  Ediel_sol  =         0.00000000
  ---------------------------------------------------
  free energy    TOTEN  =       -18.26182568 eV

  energy without entropy =      -18.23675059  energy(sigma->0) =      -18.25346732


--------------------------------------------------------------------------------------------------------




 average (electrostatic) potential at core
  the test charge radii are     0.6991
  (the norm of the test charge is              1.0000)
       1 -60.5650       2 -60.5650
 
 
 
 E-fermi :  -3.9255     XC(G=0):  -4.1646     alpha+bet : -3.1363


 k-point     1 :       0.0000    0.0000    0.0000
  band No.  band energies     occupation 
      1     -23.6873      2.00000
      2     -11.2534      2.00000
      3      -7.7459      2.00000
      4      -7.7446      2.00000
      5       1.0507     -0.00000
      6       2.2711      0.00000
      7       3.1007      0.00000
      8       3.7693      0.00000
      9       3.7701      0.00000
     10       6.0887      0.00000
     11       6.9327      0.00000
     12       7.3911      0.00000
     13       7.7362      0.00000
     14      12.2565      0.00000

 k-point     2 :       0.3333    0.0000    0.0000
  band No.  band energies     occupation 
      1     -21.1753      2.00000
      2     -14.0775      2.00000
      3     -10.3677      2.00000
      4      -8.3617      2.00000
      5       0.8626     -0.00000
      6       3.2326      0.00000
      7       4.5565      0.00000
      8       5.7628      0.00000
      9       6.6492      0.00000
     10       9.3789      0.00000
     11      10.7932      0.00000
     12      11.4021      0.00000
     13      11.7276      0.00000
     14      13.8447      0.00000

 k-point     3 :       0.0000    0.3333    0.0000
  band No.  band energies     occupation 
      1     -21.1753      2.00000
      2     -14.0775      2.00000
      3     -10.3677      2.00000
      4      -8.3617      2.00000
      5       0.8626     -0.00000
      6       3.2325      0.00000
      7       4.5565      0.00000
      8       5.7628      0.00000
      9       6.6492      0.00000
     10       9.3789      0.00000
     11      10.7932      0.00000
     12      11.4021      0.00000
     13      11.7276      0.00000
     14      13.8447      0.00000

 k-point     4 :       0.3333    0.3333    0.0000
  band No.  band energies     occupation 
      1     -16.9922      2.00000
      2     -16.9921      2.00000
      3     -14.8718      2.00000
      4      -3.9255      1.00056
      5      -3.9254      0.99944
      6       7.4998      0.00000
      7       9.1580      0.00000
      8       9.1582      0.00000
      9      10.3889      0.00000
     10      12.4494      0.00000
     11      12.4504      0.00000
     12      12.8452      0.00000
     13      12.8460      0.00000
     14      13.2114      0.00000

 k-point     5 :      -0.3333    0.3333    0.0000
  band No.  band energies     occupation 
      1     -21.1753      2.00000
      2     -14.0779      2.00000
      3     -10.3670      2.00000
      4      -8.3617      2.00000
      5       0.8625     -0.00000
      6       3.2323      0.00000
      7       4.5565      0.00000
      8       5.7628      0.00000
      9       6.6492      0.00000
     10       9.3789      0.00000
     11      10.7932      0.00000
     12      11.4031      0.00000
     13      11.7265      0.00000
     14      13.8446      0.00000


--------------------------------------------------------------------------------------------------------


 soft charge-density along one line, spin component           1
         0         1         2         3         4         5         6         7         8         9
 total charge-density along one line
 
 pseudopotential strength for first ion, spin component:           1
 10.364   0.023   0.000   0.000  -0.000  -0.000  -0.000   0.000
  0.023  -0.001  -0.000  -0.000   0.000  -0.000  -0.000   0.000
  0.000  -0.000  -4.487   0.000   0.000  -0.012   0.000   0.000
  0.000  -0.000   0.000  -4.465  -0.000   0.000  -0.008  -0.000
 -0.000   0.000   0.000  -0.000  -4.487   0.000  -0.000  -0.012
 -0.000  -0.000  -0.012   0.000   0.000  -0.774   0.000   0.000
 -0.000  -0.000   0.000  -0.008  -0.000   0.000  -0.774  -0.000
  0.000   0.000   0.000  -0.000  -0.012   0.000  -0.000  -0.774
 total augmentation occupancy for first ion, spin component:           1
  1.468  -1.059  -0.000  -0.003  -0.000  -0.000   0.002   0.000
 -1.059   0.917  -0.000  -0.012   0.000  -0.000  -0.002   0.000
 -0.000  -0.000   1.257   0.000  -0.000   0.217  -0.000   0.000
 -0.003  -0.012   0.000   0.995   0.000  -0.000   0.092  -0.000
 -0.000   0.000  -0.000   0.000   1.257   0.000  -0.000   0.217
 -0.000  -0.000   0.217  -0.000   0.000   0.043  -0.000   0.000
  0.002  -0.002  -0.000   0.092  -0.000  -0.000   0.011  -0.000
  0.000   0.000   0.000  -0.000   0.217   0.000  -0.000   0.043


----------------------------------------- Iteration    1(   7)  ---------------------------------------


    POTLOK:  cpu time    0.0050: real time    0.0053
    SETDIJ:  cpu time    0.0040: real time    0.0035
     EDDAV:  cpu time    0.1200: real time    0.2783
       DOS:  cpu time    0.0010: real time    0.0005
    CHARGE:  cpu time    0.0110: real time    0.0118
    MIXING:  cpu time    0.0010: real time    0.0004
    --------------------------------------------
      LOOP:  cpu time    0.1430: real time    0.3022

 eigenvalue-minimisations  :   196
 total energy-change (2. order) : 0.3417327E+00  (-0.1020688E+00)
 number of electron       8.0000000 magnetization 
 augmentation part        0.1954437 magnetization 

 Broyden mixing:
  rms(total) = 0.49744E-01    rms(broyden)= 0.49561E-01
  rms(prec ) = 0.66893E-01
  weight for this iteration     100.00

 eigenvalues of (default mixing * dielectric matrix)
  average eigenvalue GAMMA=   2.2619
  2.1110  2.4129

 Free energy of the ion-electron system (eV)
  ---------------------------------------------------
  alpha Z        PSCENC =         5.09113229
  Ewald energy   TEWEN  =       551.10423270
  -Hartree energ DENC   =      -800.85574522
  -exchange      EXHF   =         0.00000000
  -V(xc)+E(xc)   XCENC  =        28.57517215
  PAW double counting   =       136.44891654     -139.07520872
  entropy T*S    EENTRO =        -0.02507508
  eigenvalues    EBANDS =       -93.43796543
  atomic energy  EATOM  =       294.25444774
  Solvation  Ediel_sol  =         0.00000000
  ---------------------------------------------------
  free energy    TOTEN  =       -17.92009302 eV

  energy without entropy =      -17.89501793  energy(sigma->0) =      -17.91173466


--------------------------------------------------------------------------------------------------------




 average (electrostatic) potential at core
  the test charge radii are     0.6991
  (the norm of the test charge is              1.0000)
       1 -58.0066       2 -58.0063
 
 
 
 E-fermi :  -2.6480     XC(G=0):  -4.1980     alpha+bet : -3.1363


 k-point     1 :       0.0000    0.0000    0.0000
  band No.  band energies     occupation 
      1     -22.0688      2.00000
      2     -10.1358      2.00000
      3      -5.7174      2.00000
      4      -5.7163      2.00000
      5       0.8930     -0.00000
      6       2.0097     -0.00000
      7       2.8872      0.00000
      8       5.5166      0.00000
      9       5.5174      0.00000
     10       5.9547      0.00000
     11       7.1608      0.00000
     12       8.5711      0.00000
     13       9.3858      0.00000
     14      12.1629      0.00000

 k-point     2 :       0.3333    0.0000    0.0000
  band No.  band energies     occupation 
      1     -19.5123      2.00000
      2     -12.2699      2.00000
      3      -8.4221      2.00000
      4      -7.1903      2.00000
      5       2.1845     -0.00000
      6       4.3907      0.00000
      7       4.8333      0.00000
      8       5.5427      0.00000
      9       6.4383      0.00000
     10       9.3053      0.00000
     11      10.6256      0.00000
     12      13.0292      0.00000
     13      13.3332      0.00000
     14      14.1552      0.00000

 k-point     3 :       0.0000    0.3333    0.0000
  band No.  band energies     occupation 
      1     -19.5123      2.00000
      2     -12.2699      2.00000
      3      -8.4221      2.00000
      4      -7.1903      2.00000
      5       2.1845     -0.00000
      6       4.3907      0.00000
      7       4.8333      0.00000
      8       5.5427      0.00000
      9       6.4383      0.00000
     10       9.3053      0.00000
     11      10.6256      0.00000
     12      13.0289      0.00000
     13      13.3332      0.00000
     14      14.1552      0.00000

 k-point     4 :       0.3333    0.3333    0.0000
  band No.  band energies     occupation 
      1     -15.2319      2.00000
      2     -15.2319      2.00000
      3     -13.1210      2.00000
      4      -2.6481      1.00066
      5      -2.6479      0.99934
      6       7.9935      0.00000
      7      10.2658      0.00000
      8      10.2659      0.00000
      9      10.8992      0.00000
     10      12.6020      0.00000
     11      12.6023      0.00000
     12      12.6258      0.00000
     13      12.6259      0.00000
     14      13.1114      0.00000

 k-point     5 :      -0.3333    0.3333    0.0000
  band No.  band energies     occupation 
      1     -19.5123      2.00000
      2     -12.2703      2.00000
      3      -8.4215      2.00000
      4      -7.1903      2.00000
      5       2.1844     -0.00000
      6       4.3907      0.00000
      7       4.8331      0.00000
      8       5.5427      0.00000
      9       6.4383      0.00000
     10       9.3054      0.00000
     11      10.6255      0.00000
     12      13.0282      0.00000
     13      13.3341      0.00000
     14      14.1552      0.00000


--------------------------------------------------------------------------------------------------------


 soft charge-density along one line, spin component           1
         0         1         2         3         4         5         6         7         8         9
 total charge-density along one line
 
 pseudopotential strength for first ion, spin component:           1
 10.225   0.019   0.000   0.000   0.000  -0.000  -0.000  -0.000
  0.019  -0.002  -0.000  -0.000   0.000  -0.000  -0.000  -0.000
  0.000  -0.000  -4.332   0.000  -0.000  -0.019  -0.000   0.000
  0.000  -0.000   0.000  -4.325   0.000  -0.000  -0.016  -0.000
  0.000   0.000  -0.000   0.000  -4.332   0.000  -0.000  -0.019
 -0.000  -0.000  -0.019  -0.000   0.000  -0.772   0.000  -0.000
 -0.000  -0.000  -0.000  -0.016  -0.000   0.000  -0.772   0.000
 -0.000  -0.000   0.000  -0.000  -0.019  -0.000   0.000  -0.772
 total augmentation occupancy for first ion, spin component:           1
  1.441  -1.161   0.000  -0.003   0.000  -0.000   0.002  -0.000
 -1.161   1.090  -0.000  -0.010   0.000  -0.000  -0.003   0.000
  0.000  -0.000   1.224   0.000  -0.000   0.227   0.000   0.000
 -0.003  -0.010   0.000   0.931  -0.000   0.000   0.107  -0.000
  0.000   0.000  -0.000  -0.000   1.224   0.000  -0.000   0.227
 -0.000  -0.000   0.227   0.000   0.000   0.048   0.000   0.000
  0.002  -0.003   0.000   0.107  -0.000   0.000   0.014  -0.000
 -0.000   0.000   0.000  -0.000   0.227   0.000  -0.000   0.048


----------------------------------------- Iteration    1(   8)  ---------------------------------------


    POTLOK:  cpu time    0.0050: real time    0.0047
    SETDIJ:  cpu time    0.0030: real time    0.0031
     EDDAV:  cpu time    0.1510: real time    0.3163
       DOS:  cpu time    0.0010: real time    0.0015
    CHARGE:  cpu time    0.0060: real time    0.0059
    MIXING:  cpu time    0.0010: real time    0.0004
    --------------------------------------------
      LOOP:  cpu time    0.1670: real time    0.3338

 eigenvalue-minimisations  :   210
 total energy-change (2. order) : 0.9786276E-02  (-0.7046542E-03)
 number of electron       8.0000000 magnetization 
 augmentation part        0.1953261 magnetization 

 Broyden mixing:
  rms(total) = 0.74798E-02    rms(broyden)= 0.74262E-02
  rms(prec ) = 0.25908E-01
  weight for this iteration     100.00

 eigenvalues of (default mixing * dielectric matrix)
  average eigenvalue GAMMA=   2.0061
  1.2933  2.6672  2.0579

 Free energy of the ion-electron system (eV)
  ---------------------------------------------------
  alpha Z        PSCENC =         5.09113229
  Ewald energy   TEWEN  =       551.10423270
  -Hartree energ DENC   =      -803.47983058
  -exchange      EXHF   =         0.00000000
  -V(xc)+E(xc)   XCENC  =        28.61787122
  PAW double counting   =       137.92988192     -140.50092637
  entropy T*S    EENTRO =        -0.02507494
  eigenvalues    EBANDS =       -90.90204072
  atomic energy  EATOM  =       294.25444774
  Solvation  Ediel_sol  =         0.00000000
  ---------------------------------------------------
  free energy    TOTEN  =       -17.91030674 eV

  energy without entropy =      -17.88523180  energy(sigma->0) =      -17.90194843


--------------------------------------------------------------------------------------------------------




 average (electrostatic) potential at core
  the test charge radii are     0.6991
  (the norm of the test charge is              1.0000)
       1 -57.8218       2 -57.8231
 
 
 
 E-fermi :  -2.3561     XC(G=0):  -4.1945     alpha+bet : -3.1363


 k-point     1 :       0.0000    0.0000    0.0000
  band No.  band energies     occupation 
      1     -21.7395      2.00000
      2      -9.8407      2.00000
      3      -5.3994      2.00000
      4      -5.3983      2.00000
      5       0.9465     -0.00000
      6       2.0648     -0.00000
      7       2.6936     -0.00000
      8       5.8405      0.00000
      9       5.8412      0.00000
     10       5.8781      0.00000
     11       7.1166      0.00000
     12       8.8614      0.00000
     13       9.6872      0.00000
     14      12.1512      0.00000

 k-point     2 :       0.3333    0.0000    0.0000
  band No.  band energies     occupation 
      1     -19.1846      2.00000
      2     -11.9452      2.00000
      3      -8.1007      2.00000
      4      -6.8964      2.00000
      5       2.4774     -0.00000
      6       4.4752      0.00000
      7       5.1508      0.00000
      8       5.6097      0.00000
      9       6.2400      0.00000
     10       9.2435      0.00000
     11      10.5854      0.00000
     12      13.2917      0.00000
     13      13.6435      0.00000
     14      14.3104      0.00000

 k-point     3 :       0.0000    0.3333    0.0000
  band No.  band energies     occupation 
      1     -19.1846      2.00000
      2     -11.9452      2.00000
      3      -8.1007      2.00000
      4      -6.8964      2.00000
      5       2.4774     -0.00000
      6       4.4752      0.00000
      7       5.1508      0.00000
      8       5.6097      0.00000
      9       6.2400      0.00000
     10       9.2435      0.00000
     11      10.5854      0.00000
     12      13.2916      0.00000
     13      13.6435      0.00000
     14      14.3104      0.00000

 k-point     4 :       0.3333    0.3333    0.0000
  band No.  band energies     occupation 
      1     -14.9110      2.00000
      2     -14.9108      2.00000
      3     -12.7823      2.00000
      4      -2.3564      1.00243
      5      -2.3558      0.99757
      6       8.2988      0.00000
      7      10.4903      0.00000
      8      10.4905      0.00000
      9      11.1353      0.00000
     10      12.5227      0.00000
     11      12.5228      0.00000
     12      12.6897      0.00000
     13      12.6898      0.00000
     14      12.9032      0.00000

 k-point     5 :      -0.3333    0.3333    0.0000
  band No.  band energies     occupation 
      1     -19.1846      2.00000
      2     -11.9456      2.00000
      3      -8.1000      2.00000
      4      -6.8964      2.00000
      5       2.4773     -0.00000
      6       4.4752      0.00000
      7       5.1506      0.00000
      8       5.6097      0.00000
      9       6.2400      0.00000
     10       9.2435      0.00000
     11      10.5854      0.00000
     12      13.2908      0.00000
     13      13.6444      0.00000
     14      14.3104      0.00000


--------------------------------------------------------------------------------------------------------


 soft charge-density along one line, spin component           1
         0         1         2         3         4         5         6         7         8         9
 total charge-density along one line
 
 pseudopotential strength for first ion, spin component:           1
 10.204   0.018  -0.000   0.000   0.000   0.000  -0.000  -0.000
  0.018  -0.002   0.000  -0.000   0.000   0.000  -0.000  -0.000
 -0.000   0.000  -4.324  -0.000  -0.000  -0.017  -0.000   0.000
  0.000  -0.000  -0.000  -4.319   0.000  -0.000  -0.014   0.000
  0.000   0.000  -0.000   0.000  -4.324   0.000   0.000  -0.017
  0.000   0.000  -0.017  -0.000   0.000  -0.772  -0.000  -0.000
 -0.000  -0.000  -0.000  -0.014   0.000  -0.000  -0.772   0.000
 -0.000  -0.000   0.000   0.000  -0.017  -0.000   0.000  -0.772
 total augmentation occupancy for first ion, spin component:           1
  1.442  -1.146   0.000  -0.003  -0.000  -0.000   0.001   0.000
 -1.146   1.068   0.000  -0.011   0.000   0.000  -0.003  -0.000
  0.000   0.000   1.225   0.000  -0.000   0.226  -0.000   0.000
 -0.003  -0.011   0.000   0.929  -0.000  -0.000   0.106   0.000
 -0.000   0.000  -0.000  -0.000   1.225   0.000   0.000   0.226
 -0.000   0.000   0.226  -0.000   0.000   0.048  -0.000   0.000
  0.001  -0.003  -0.000   0.106   0.000  -0.000   0.014   0.000
  0.000  -0.000   0.000   0.000   0.226   0.000   0.000   0.047


----------------------------------------- Iteration    1(   9)  ---------------------------------------


    POTLOK:  cpu time    0.0060: real time    0.0052
    SETDIJ:  cpu time    0.0030: real time    0.0031
     EDDAV:  cpu time    0.1470: real time    0.2912
       DOS:  cpu time    0.0010: real time    0.0005
    CHARGE:  cpu time    0.0040: real time    0.0039
    MIXING:  cpu time    0.0000: real time    0.0003
    --------------------------------------------
      LOOP:  cpu time    0.1610: real time    0.3068

 eigenvalue-minimisations  :   252
 total energy-change (2. order) : 0.1987345E-02  (-0.1189650E-03)
 number of electron       8.0000000 magnetization 
 augmentation part        0.1950602 magnetization 

 Broyden mixing:
  rms(total) = 0.68568E-02    rms(broyden)= 0.68499E-02
  rms(prec ) = 0.20185E-01
  weight for this iteration     100.00

 eigenvalues of (default mixing * dielectric matrix)
  average eigenvalue GAMMA=   1.8747
  2.7788  2.1371  1.8047  0.7784

 Free energy of the ion-electron system (eV)
  ---------------------------------------------------
  alpha Z        PSCENC =         5.09113229
  Ewald energy   TEWEN  =       551.10423270
  -Hartree energ DENC   =      -804.71811460
  -exchange      EXHF   =         0.00000000
  -V(xc)+E(xc)   XCENC  =        28.64132746
  PAW double counting   =       138.22183276     -140.79080708
  entropy T*S    EENTRO =        -0.02507396
  eigenvalues    EBANDS =       -89.68729672
  atomic energy  EATOM  =       294.25444774
  Solvation  Ediel_sol  =         0.00000000
  ---------------------------------------------------
  free energy    TOTEN  =       -17.90831939 eV

  energy without entropy =      -17.88324543  energy(sigma->0) =      -17.89996141


--------------------------------------------------------------------------------------------------------




 average (electrostatic) potential at core
  the test charge radii are     0.6991
  (the norm of the test charge is              1.0000)
       1 -57.6692       2 -57.6654
 
 
 
 E-fermi :  -2.2145     XC(G=0):  -4.1571     alpha+bet : -3.1363


 k-point     1 :       0.0000    0.0000    0.0000
  band No.  band energies     occupation 
      1     -21.5859      2.00000
      2      -9.7039      2.00000
      3      -5.2405      2.00000
      4      -5.2394      2.00000
      5       0.9813     -0.00000
      6       2.1189     -0.00000
      7       2.6645     -0.00000
      8       5.8803      0.00000
      9       5.9957      0.00000
     10       5.9964      0.00000
     11       7.1654      0.00000
     12       9.0112      0.00000
     13       9.8388      0.00000
     14      12.1922      0.00000

 k-point     2 :       0.3333    0.0000    0.0000
  band No.  band energies     occupation 
      1     -19.0304      2.00000
      2     -11.7890      2.00000
      3      -7.9427      2.00000
      4      -6.7580      2.00000
      5       2.6192     -0.00000
      6       4.5175      0.00000
      7       5.2987      0.00000
      8       5.6656      0.00000
      9       6.2120      0.00000
     10       9.2537      0.00000
     11      10.6351      0.00000
     12      13.4121      0.00000
     13      13.8001      0.00000
     14      14.3844      0.00000

 k-point     3 :       0.0000    0.3333    0.0000
  band No.  band energies     occupation 
      1     -19.0304      2.00000
      2     -11.7890      2.00000
      3      -7.9427      2.00000
      4      -6.7580      2.00000
      5       2.6192     -0.00000
      6       4.5175      0.00000
      7       5.2987      0.00000
      8       5.6656      0.00000
      9       6.2120      0.00000
     10       9.2537      0.00000
     11      10.6351      0.00000
     12      13.4121      0.00000
     13      13.8001      0.00000
     14      14.3844      0.00000

 k-point     4 :       0.3333    0.3333    0.0000
  band No.  band energies     occupation 
      1     -14.7561      2.00000
      2     -14.7555      2.00000
      3     -12.6256      2.00000
      4      -2.2153      1.00656
      5      -2.2138      0.99344
      6       8.4077      0.00000
      7      10.5933      0.00000
      8      10.5938      0.00000
      9      11.2158      0.00000
     10      12.5336      0.00000
     11      12.5338      0.00000
     12      12.7425      0.00000
     13      12.7426      0.00000
     14      12.8847      0.00000

 k-point     5 :      -0.3333    0.3333    0.0000
  band No.  band energies     occupation 
      1     -19.0304      2.00000
      2     -11.7893      2.00000
      3      -7.9421      2.00000
      4      -6.7580      2.00000
      5       2.6192     -0.00000
      6       4.5175      0.00000
      7       5.2985      0.00000
      8       5.6656      0.00000
      9       6.2120      0.00000
     10       9.2537      0.00000
     11      10.6351      0.00000
     12      13.4114      0.00000
     13      13.8010      0.00000
     14      14.3844      0.00000


--------------------------------------------------------------------------------------------------------


 soft charge-density along one line, spin component           1
         0         1         2         3         4         5         6         7         8         9
 total charge-density along one line
 
 pseudopotential strength for first ion, spin component:           1
 10.194   0.018  -0.000   0.000   0.000   0.000  -0.000  -0.000
  0.018  -0.002   0.000  -0.000  -0.000   0.000  -0.000  -0.000
 -0.000   0.000  -4.316   0.000  -0.000  -0.017  -0.000   0.000
  0.000  -0.000   0.000  -4.311  -0.000  -0.000  -0.014   0.000
  0.000  -0.000  -0.000  -0.000  -4.316   0.000   0.000  -0.017
  0.000   0.000  -0.017  -0.000   0.000  -0.772   0.000  -0.000
 -0.000  -0.000  -0.000  -0.014   0.000   0.000  -0.772  -0.000
 -0.000  -0.000   0.000   0.000  -0.017  -0.000  -0.000  -0.772
 total augmentation occupancy for first ion, spin component:           1
  1.442  -1.144   0.000  -0.003  -0.000  -0.000   0.001   0.000
 -1.144   1.065  -0.000  -0.011   0.000   0.000  -0.003  -0.000
  0.000  -0.000   1.225   0.000  -0.000   0.226   0.000   0.000
 -0.003  -0.011   0.000   0.930  -0.000  -0.000   0.106   0.000
 -0.000   0.000  -0.000  -0.000   1.225   0.000  -0.000   0.226
 -0.000   0.000   0.226  -0.000   0.000   0.048  -0.000   0.000
  0.001  -0.003   0.000   0.106  -0.000  -0.000   0.014  -0.000
  0.000  -0.000   0.000   0.000   0.226   0.000  -0.000   0.047


----------------------------------------- Iteration    1(  10)  ---------------------------------------


    POTLOK:  cpu time    0.0040: real time    0.0046
    SETDIJ:  cpu time    0.0030: real time    0.0025
     EDDAV:  cpu time    0.0910: real time    0.2386
       DOS:  cpu time    0.0000: real time    0.0002
    CHARGE:  cpu time    0.0040: real time    0.0036
    MIXING:  cpu time    0.0000: real time    0.0004
    --------------------------------------------
      LOOP:  cpu time    0.1030: real time    0.2518

 eigenvalue-minimisations  :   154
 total energy-change (2. order) : 0.1709489E-02  (-0.2193469E-03)
 number of electron       8.0000000 magnetization 
 augmentation part        0.1948458 magnetization 

 Broyden mixing:
  rms(total) = 0.11636E-01    rms(broyden)= 0.11611E-01
  rms(prec ) = 0.16696E-01
  weight for this iteration     100.00

 eigenvalues of (default mixing * dielectric matrix)
  average eigenvalue GAMMA=   1.9291
  3.7571  2.5279  2.0027  0.9829  0.3747

 Free energy of the ion-electron system (eV)
  ---------------------------------------------------
  alpha Z        PSCENC =         5.09113229
  Ewald energy   TEWEN  =       551.10423270
  -Hartree energ DENC   =      -806.85141200
  -exchange      EXHF   =         0.00000000
  -V(xc)+E(xc)   XCENC  =        28.66565604
  PAW double counting   =       137.40787934     -139.98002436
  entropy T*S    EENTRO =        -0.02501050
  eigenvalues    EBANDS =       -87.57351117
  atomic energy  EATOM  =       294.25444774
  Solvation  Ediel_sol  =         0.00000000
  ---------------------------------------------------
  free energy    TOTEN  =       -17.90660991 eV

  energy without entropy =      -17.88159941  energy(sigma->0) =      -17.89827307


--------------------------------------------------------------------------------------------------------




 average (electrostatic) potential at core
  the test charge radii are     0.6991
  (the norm of the test charge is              1.0000)
       1 -57.3780       2 -57.4069
 
 
 
 E-fermi :  -1.9569     XC(G=0):  -3.9850     alpha+bet : -3.1363


 k-point     1 :       0.0000    0.0000    0.0000
  band No.  band energies     occupation 
      1     -21.3196      2.00000
      2      -9.4532      2.00000
      3      -4.9717      2.00000
      4      -4.9707      2.00000
      5       1.1642     -0.00000
      6       2.4017     -0.00000
      7       2.6702     -0.00000
      8       5.9567      0.00000
      9       6.2639      0.00000
     10       6.2646      0.00000
     11       7.4018      0.00000
     12       9.2784      0.00000
     13      10.1062      0.00000
     14      12.4204      0.00000

 k-point     2 :       0.3333    0.0000    0.0000
  band No.  band energies     occupation 
      1     -18.7636      2.00000
      2     -11.5211      2.00000
      3      -7.6741      2.00000
      4      -6.5049      2.00000
      5       2.8771     -0.00000
      6       4.7095      0.00000
      7       5.5557      0.00000
      8       5.9466      0.00000
      9       6.2177      0.00000
     10       9.3400      0.00000
     11      10.8754      0.00000
     12      13.6503      0.00000
     13      14.0689      0.00000
     14      14.6023      0.00000

 k-point     3 :       0.0000    0.3333    0.0000
  band No.  band energies     occupation 
      1     -18.7636      2.00000
      2     -11.5211      2.00000
      3      -7.6741      2.00000
      4      -6.5049      2.00000
      5       2.8771     -0.00000
      6       4.7095      0.00000
      7       5.5557      0.00000
      8       5.9466      0.00000
      9       6.2177      0.00000
     10       9.3400      0.00000
     11      10.8754      0.00000
     12      13.6503      0.00000
[...]


   POT+DIJ:  cpu time    0.0130: real time    0.0125
    HAMIL1:  cpu time    0.0130: real time    0.0507
    LRDIAG:  cpu time    0.0020: real time    0.0021
    LRDIIS:  cpu time    0.0140: real time    0.0200
    LRDIAG:  cpu time    0.0020: real time    0.0015
    MIXING:  cpu time    0.0000: real time    0.0006
    --------------------------------------------
      LOOP:  cpu time    0.0570: real time    0.1007

 Broyden mixing:
  rms(total) = 0.12858E-05    rms(broyden)= 0.12848E-05
  rms(prec ) = 0.16779E-05
  weight for this iteration     100.00

 eigenvalues of (default mixing * dielectric matrix)
  average eigenvalue GAMMA=   1.4628
  2.9032  2.5616  2.2988  2.1380  1.6139  1.1558  0.9992  0.9440  0.9440  0.3784
  0.1538

 Free energy of the ion-electron system (eV)
  ---------------------------------------------------
  -Hartree energ DENC   =        -0.01378434
  -V(xc)+E(xc)   XCENC  =         0.00108204
  PAW double counting   =         0.01344688       -0.01313365
  entropy T*S    EENTRO =         0.00000000
  eigenvalues    EBANDS =        -0.12703858
  ---------------------------------------------------
  free energy    TOTEN  =        -0.13942765 eV

  energy without entropy =       -0.13942765


----------------------------------------- Iteration    2(  14)  ---------------------------------------


   POT+DIJ:  cpu time    0.0140: real time    0.0128
    HAMIL1:  cpu time    0.0070: real time    0.0310
    LRDIAG:  cpu time    0.0030: real time    0.0028
    LRDIIS:  cpu time    0.0190: real time    0.0244
    LRDIAG:  cpu time    0.0020: real time    0.0018
    MIXING:  cpu time    0.0010: real time    0.0008
    --------------------------------------------
      LOOP:  cpu time    0.0510: real time    0.0793

 Broyden mixing:
  rms(total) = 0.12464E-05    rms(broyden)= 0.12458E-05
  rms(prec ) = 0.15561E-05
  weight for this iteration     100.00

 eigenvalues of (default mixing * dielectric matrix)
  average eigenvalue GAMMA=   1.5778
  2.9002  2.9002  2.3037  2.2688  2.2688  1.1575  0.9976  0.9583  1.0864  1.0864
  0.6889  0.3165

 Free energy of the ion-electron system (eV)
  ---------------------------------------------------
  -Hartree energ DENC   =        -0.01378432
  -V(xc)+E(xc)   XCENC  =         0.00108204
  PAW double counting   =         0.01344689       -0.01313367
  entropy T*S    EENTRO =         0.00000000
  eigenvalues    EBANDS =        -0.12694343
  ---------------------------------------------------
  free energy    TOTEN  =        -0.13933249 eV

  energy without entropy =       -0.13933249


------------------------ aborting loop because EDIFF is reached ----------------------------------------


 change of polarisation eV/A/(eV/A) component  2 :    -0.000     0.260    -0.000
 dielectric tensor                  component  2 :    -0.000     1.736    -0.000


--------------------------------------------------------------------------------------------------------


    FORLOC:  cpu time    0.0030: real time    0.0029
    FORNL :  cpu time    0.0460: real time    0.3943
    STRESS:  cpu time    0.1300: real time    1.3855
    OFIELD:  cpu time    0.0000: real time    0.0001
    FORLOC:  cpu time    0.0010: real time    0.0003
    FORNL :  cpu time    0.0670: real time    0.7291
    STRESS:  cpu time    0.1660: real time    1.8267
    OFIELD:  cpu time    0.0000: real time    0.0001
    FORNLD:  cpu time    0.1360: real time    1.2262

 PIEZOELECTRIC TENSOR FIELD DIRECTION 2  (e Angst)
 -----------------------------------------------------------------------------
     0.02292 -1.33539  0.01934           ( -0.00000  0.00000 -0.00000)
    -1.33539 -0.02285 -0.00033           (  0.00000  0.00000  0.00000)
     0.01934 -0.00033  0.00005           ( -0.00000  0.00000  0.00000)

 PIEZOELECTRIC TENSOR FIELD DIRECTION 2  (C/m^2)
 -----------------------------------------------------------------------------
     0.00574 -0.33421  0.00484
    -0.33421 -0.00572 -0.00008
     0.00484 -0.00008  0.00001


      POSITION         DIRECTION 2           BORN EFFECTIVE CHARGE    (rigid.aug.   ionic)
 -----------------------------------------------------------------------------------------
      2.48195      0.00000      1.69297    -1.37748  0.01248 -0.00002 ( -0.09737  4.00000)
     -0.00001      1.43296      1.70711     1.37741 -0.03521 -0.00002 ( -0.09737  4.00000)
 -----------------------------------------------------------------------------------------
    total drift (improves with k-points):  -0.00007 -0.02272 -0.00004




--------------------------------------------------------------------------------------------------------


 Linear response to external field, progress :
  Direction:   3


----------------------------------------- Iteration    3(   1)  ---------------------------------------


   POT+DIJ:  cpu time    0.0170: real time    0.0173
    HAMIL1:  cpu time    0.0130: real time    0.0564
    LRDIAG:  cpu time    0.0020: real time    0.0021
    LRDIIS:  cpu time    0.0400: real time    0.0477
    LRDIAG:  cpu time    0.0010: real time    0.0017
    --------------------------------------------
      LOOP:  cpu time    0.0730: real time    0.1253

 Free energy of the ion-electron system (eV)
  ---------------------------------------------------
  -Hartree energ DENC   =         0.00000000
  -V(xc)+E(xc)   XCENC  =         0.00000000
  PAW double counting   =         0.00000000        0.00000000
  entropy T*S    EENTRO =         0.00000000
  eigenvalues    EBANDS =        -0.08656057
  ---------------------------------------------------
  free energy    TOTEN  =        -0.08656057 eV

  energy without entropy =       -0.08656057


----------------------------------------- Iteration    3(   2)  ---------------------------------------


   POT+DIJ:  cpu time    0.0150: real time    0.0142
    HAMIL1:  cpu time    0.0100: real time    0.0341
    LRDIAG:  cpu time    0.0030: real time    0.0035
    LRDIIS:  cpu time    0.0260: real time    0.0332
    LRDIAG:  cpu time    0.0030: real time    0.0022
    MIXING:  cpu time    0.0010: real time    0.0008
    --------------------------------------------
      LOOP:  cpu time    0.0630: real time    0.0939

 Broyden mixing:
  rms(total) = 0.48805E-01    rms(broyden)= 0.48799E-01
  rms(prec ) = 0.10690E+00
  weight for this iteration     100.00

 Free energy of the ion-electron system (eV)
  ---------------------------------------------------
  -Hartree energ DENC   =         0.00000000
  -V(xc)+E(xc)   XCENC  =         0.00000000
  PAW double counting   =         0.00000000        0.00000000
  entropy T*S    EENTRO =         0.00000000
  eigenvalues    EBANDS =        -0.08806190
  ---------------------------------------------------
  free energy    TOTEN  =        -0.08806190 eV

  energy without entropy =       -0.08806190


----------------------------------------- Iteration    3(   3)  ---------------------------------------


   POT+DIJ:  cpu time    0.0160: real time    0.0162
    HAMIL1:  cpu time    0.0100: real time    0.0348
    LRDIAG:  cpu time    0.0040: real time    0.0044
    LRDIIS:  cpu time    0.0280: real time    0.0338
    LRDIAG:  cpu time    0.0050: real time    0.0042
    MIXING:  cpu time    0.0010: real time    0.0004
    --------------------------------------------
      LOOP:  cpu time    0.0710: real time    0.1024

 Broyden mixing:
  rms(total) = 0.19186E-01    rms(broyden)= 0.19186E-01
  rms(prec ) = 0.53176E-01
  weight for this iteration     100.00

 eigenvalues of (default mixing * dielectric matrix)
  average eigenvalue GAMMA=   1.3141
  1.3141

 Free energy of the ion-electron system (eV)
  ---------------------------------------------------
  -Hartree energ DENC   =        -0.00616089
  -V(xc)+E(xc)   XCENC  =         0.00016019
  PAW double counting   =         0.00003834       -0.00003832
  entropy T*S    EENTRO =         0.00000000
  eigenvalues    EBANDS =        -0.04654816
  ---------------------------------------------------
  free energy    TOTEN  =        -0.05254884 eV

  energy without entropy =       -0.05254884


----------------------------------------- Iteration    3(   4)  ---------------------------------------


   POT+DIJ:  cpu time    0.0170: real time    0.0166
    HAMIL1:  cpu time    0.0110: real time    0.0411
    LRDIAG:  cpu time    0.0040: real time    0.0033
    LRDIIS:  cpu time    0.0270: real time    0.0316
    LRDIAG:  cpu time    0.0020: real time    0.0019
    MIXING:  cpu time    0.0010: real time    0.0006
    --------------------------------------------
      LOOP:  cpu time    0.0670: real time    0.1008

 Broyden mixing:
  rms(total) = 0.10632E-01    rms(broyden)= 0.10629E-01
  rms(prec ) = 0.23334E-01
  weight for this iteration     100.00

 eigenvalues of (default mixing * dielectric matrix)
  average eigenvalue GAMMA=   1.8661
  1.8661  1.8661

 Free energy of the ion-electron system (eV)
  ---------------------------------------------------
  -Hartree energ DENC   =        -0.01781678
  -V(xc)+E(xc)   XCENC  =         0.00042255
  PAW double counting   =         0.00001004       -0.00000898
  entropy T*S    EENTRO =         0.00000000
  eigenvalues    EBANDS =        -0.02561225
  ---------------------------------------------------
  free energy    TOTEN  =        -0.04300543 eV

  energy without entropy =       -0.04300543


----------------------------------------- Iteration    3(   5)  ---------------------------------------


   POT+DIJ:  cpu time    0.0190: real time    0.0186
    HAMIL1:  cpu time    0.0140: real time    0.0395
    LRDIAG:  cpu time    0.0020: real time    0.0027
    LRDIIS:  cpu time    0.0290: real time    0.0367
    LRDIAG:  cpu time    0.0020: real time    0.0018
    MIXING:  cpu time    0.0020: real time    0.0012
    --------------------------------------------
      LOOP:  cpu time    0.0750: real time    0.1084

 Broyden mixing:
  rms(total) = 0.42199E-02    rms(broyden)= 0.42188E-02
  rms(prec ) = 0.10635E-01
  weight for this iteration     100.00

 eigenvalues of (default mixing * dielectric matrix)
  average eigenvalue GAMMA=   1.8143
  1.2910  2.0759  2.0759

 Free energy of the ion-electron system (eV)
  ---------------------------------------------------
  -Hartree energ DENC   =        -0.02177584
  -V(xc)+E(xc)   XCENC  =         0.00050746
  PAW double counting   =         0.00017925       -0.00017196
  entropy T*S    EENTRO =         0.00000000
  eigenvalues    EBANDS =        -0.02033606
  ---------------------------------------------------
  free energy    TOTEN  =        -0.04159715 eV

  energy without entropy =       -0.04159715


----------------------------------------- Iteration    3(   6)  ---------------------------------------


   POT+DIJ:  cpu time    0.0200: real time    0.0200
    HAMIL1:  cpu time    0.0160: real time    0.0408
    LRDIAG:  cpu time    0.0040: real time    0.0043
    LRDIIS:  cpu time    0.0250: real time    0.0321
    LRDIAG:  cpu time    0.0020: real time    0.0022
    MIXING:  cpu time    0.0010: real time    0.0006
    --------------------------------------------
      LOOP:  cpu time    0.0760: real time    0.1075

 Broyden mixing:
  rms(total) = 0.26468E-02    rms(broyden)= 0.26465E-02
  rms(prec ) = 0.63700E-02
  weight for this iteration     100.00

 eigenvalues of (default mixing * dielectric matrix)
  average eigenvalue GAMMA=   2.3697
  3.6090  3.1612  1.1866  1.5218

 Free energy of the ion-electron system (eV)
  ---------------------------------------------------
  -Hartree energ DENC   =        -0.02254993
  -V(xc)+E(xc)   XCENC  =         0.00048304
  PAW double counting   =         0.00011603       -0.00011160
  entropy T*S    EENTRO =         0.00000000
  eigenvalues    EBANDS =        -0.01891926
  ---------------------------------------------------
  free energy    TOTEN  =        -0.04098171 eV

  energy without entropy =       -0.04098171


----------------------------------------- Iteration    3(   7)  ---------------------------------------


   POT+DIJ:  cpu time    0.0150: real time    0.0157
    HAMIL1:  cpu time    0.0170: real time    0.0572
    LRDIAG:  cpu time    0.0030: real time    0.0024
    LRDIIS:  cpu time    0.0320: real time    0.0384
    LRDIAG:  cpu time    0.0010: real time    0.0014
    MIXING:  cpu time    0.0000: real time    0.0004
    --------------------------------------------
      LOOP:  cpu time    0.0730: real time    0.1208

 Broyden mixing:
  rms(total) = 0.12771E-02    rms(broyden)= 0.12770E-02
  rms(prec ) = 0.23872E-02
  weight for this iteration     100.00

 eigenvalues of (default mixing * dielectric matrix)
  average eigenvalue GAMMA=   2.5519
  4.0611  3.3112  2.6641  1.1690  1.5539

 Free energy of the ion-electron system (eV)
  ---------------------------------------------------
  -Hartree energ DENC   =        -0.02263124
  -V(xc)+E(xc)   XCENC  =         0.00045528
  PAW double counting   =         0.00003823       -0.00003660
  entropy T*S    EENTRO =         0.00000000
  eigenvalues    EBANDS =        -0.01832564
  ---------------------------------------------------
  free energy    TOTEN  =        -0.04049998 eV

  energy without entropy =       -0.04049998


----------------------------------------- Iteration    3(   8)  ---------------------------------------


   POT+DIJ:  cpu time    0.0150: real time    0.0147
    HAMIL1:  cpu time    0.0140: real time    0.0401
    LRDIAG:  cpu time    0.0020: real time    0.0023
    LRDIIS:  cpu time    0.0250: real time    0.0303
    LRDIAG:  cpu time    0.0020: real time    0.0014
    MIXING:  cpu time    0.0000: real time    0.0005
    --------------------------------------------
      LOOP:  cpu time    0.0630: real time    0.0946

 Broyden mixing:
  rms(total) = 0.47909E-03    rms(broyden)= 0.47905E-03
  rms(prec ) = 0.10468E-02
  weight for this iteration     100.00

 eigenvalues of (default mixing * dielectric matrix)
  average eigenvalue GAMMA=   2.8051
  7.1350  3.4409  2.6329  1.5715  1.1666  0.8837

 Free energy of the ion-electron system (eV)
  ---------------------------------------------------
  -Hartree energ DENC   =        -0.02285004
  -V(xc)+E(xc)   XCENC  =         0.00043080
  PAW double counting   =         0.00005500       -0.00005259
  entropy T*S    EENTRO =         0.00000000
  eigenvalues    EBANDS =        -0.01814454
  ---------------------------------------------------
  free energy    TOTEN  =        -0.04056138 eV

  energy without entropy =       -0.04056138


------------------------ aborting loop because EDIFF is reached ----------------------------------------


 change of polarisation eV/A/(eV/A) component  3 :     0.000    -0.000     0.074
 dielectric tensor                  component  3 :     0.001    -0.000     1.210


--------------------------------------------------------------------------------------------------------


    FORLOC:  cpu time    0.0010: real time    0.0003
    FORNL :  cpu time    0.0380: real time    0.3705
    STRESS:  cpu time    0.1800: real time    1.4611
    OFIELD:  cpu time    0.0000: real time    0.0001
    FORLOC:  cpu time    0.0010: real time    0.0005
    FORNL :  cpu time    0.0380: real time    0.4670
    STRESS:  cpu time    0.1400: real time    1.2368
    OFIELD:  cpu time    0.0000: real time    0.0001
    FORNLD:  cpu time    0.1000: real time    1.0800

 PIEZOELECTRIC TENSOR FIELD DIRECTION 3  (e Angst)
 -----------------------------------------------------------------------------
     0.00057 -0.00107  0.00002           ( -0.00000 -0.00000 -0.00000)
    -0.00107 -0.00057 -0.00013           ( -0.00000  0.00000 -0.00001)
     0.00002 -0.00013 -0.00001           ( -0.00000 -0.00001 -0.00000)

 PIEZOELECTRIC TENSOR FIELD DIRECTION 3  (C/m^2)
 -----------------------------------------------------------------------------
     0.00014 -0.00027  0.00000
    -0.00027 -0.00014 -0.00003
     0.00000 -0.00003 -0.00000


      POSITION         DIRECTION 3           BORN EFFECTIVE CHARGE    (rigid.aug.   ionic)
 -----------------------------------------------------------------------------------------
      2.48195      0.00000      1.69297    -0.00112  0.00059 -0.00051 ( -0.09737  4.00000)
     -0.00001      1.43296      1.70711     0.00113 -0.00059 -0.00036 ( -0.09737  4.00000)
 -----------------------------------------------------------------------------------------
    total drift (improves with k-points):   0.00000 -0.00000 -0.00087




--------------------------------------------------------------------------------------------------------




 MACROSCOPIC STATIC DIELECTRIC TENSOR (including local field effects in DFT)
 ------------------------------------------------------
           1.735504    -0.000015     0.000772
           0.000354     1.735594    -0.000398
           0.000270    -0.000289     1.210273
 ------------------------------------------------------



--------------------------------------------------------------------------------------------------------




--------------------------------------------------------------------------------------------------------




 MACROSCOPIC STATIC DIELECTRIC TENSOR (including local field effects in DFT)
 ------------------------------------------------------
           1.735504    -0.000015     0.000772
           0.000354     1.735594    -0.000398
           0.000270    -0.000289     1.210273
 ------------------------------------------------------


 PIEZOELECTRIC TENSOR  for field in x, y, z        (e  Angst)
          XX          YY          ZZ          XY          YZ          ZX
  --------------------------------------------------------------------------------
  x     1.32426    -1.32425     0.00001    -0.02720    -0.01918     0.00039
  y     0.02292    -0.02285     0.00005    -1.33539    -0.00033     0.01934
  z     0.00057    -0.00057    -0.00001    -0.00107    -0.00013     0.00002

 PIEZOELECTRIC TENSOR  for field in x, y, z        (C/m^2)
          XX          YY          ZZ          XY          YZ          ZX
  --------------------------------------------------------------------------------
  x     0.33143    -0.33142     0.00000    -0.00681    -0.00480     0.00010
  y     0.00574    -0.00572     0.00001    -0.33421    -0.00008     0.00484
  z     0.00014    -0.00014    -0.00000    -0.00027    -0.00003     0.00000
 
 BORN EFFECTIVE CHARGES (in e, cummulative output)
 -------------------------------------------------
 ion    1
    1    -0.02805     1.36597    -0.00000
    2    -1.37745     0.02384    -0.00000
    3    -0.00112     0.00059    -0.00007
 ion    2
    1     0.02805    -1.36597     0.00000
    2     1.37745    -0.02384     0.00000
    3     0.00112    -0.00059     0.00007


--------------------------------------------------------------------------------------------------------


     LOOP+:  cpu time    8.4047: real time   28.3439
    4ORBIT:  cpu time    0.0000: real time    0.0000

 total amount of memory used by VASP MPI-rank0    32837. kBytes
=======================================================================

   base      :      30000. kBytes
   nonlr-proj:        208. kBytes
   fftplans  :       1526. kBytes
   grid      :        907. kBytes
   one-center:          6. kBytes
   wavefun   :        190. kBytes
 
  
  
 General timing and accounting informations for this job:
 ========================================================
  
                  Total CPU time used (sec):        9.654
                            User time (sec):        8.630
                          System time (sec):        1.024
                         Elapsed time (sec):       30.563
  
                   Maximum memory used (kb):      300532.
                   Average memory used (kb):           0.
  
                          Minor page faults:        64137
                          Major page faults:            0
                 Voluntary context switches:        13561
