<?xml version="1.0" encoding="ISO-8859-1"?>
<modeling>
 <generator>
  <i name="program" type="string">vasp </i>
  <i name="version" type="string">5.4.4.18Apr17-6-g9f103f2a35  </i>
  <i name="subversion" type="string">(build May 02 2017 19:20:32) complex            parallel </i>
  <i name="platform" type="string">fermion-Intel-MKL </i>
  <i name="date" type="string">2017 12 10 </i>
  <i name="time" type="string">16:52:23 </i>
 </generator>
 <incar>
  <i type="string" name="SYSTEM"> raman</i>
  <i type="int" name="ISTART">     0</i>
  <i type="string" name="PREC">n</i>
  <i type="int" name="IALGO">    38</i>
  <i type="logical" name="ADDGRID"> T  </i>
  <i type="int" name="ICHARG">     2</i>
  <i type="int" name="NELMIN">     4</i>
  <i name="EDIFF">      0.00010000</i>
  <i type="int" name="ISYM">     0</i>
  <i name="ENCUT">    400.00000000</i>
  <i type="string" name="LREAL"> Auto</i>
  <i type="int" name="ISMEAR">     1</i>
  <i name="SIGMA">      0.20000000</i>
  <i type="int" name="NWRITE">     3</i>
  <i type="logical" name="LWAVE"> F  </i>
  <i type="logical" name="LCHARG"> F  </i>
  <i type="logical" name="LVTOT"> F  </i>
  <i type="logical" name="LELF"> F  </i>
  <v type="int" name="KPOINT_BSE">    -1     0     0     0</v>
  <i type="logical" name="LEPSILON"> T  </i>
 </incar>
 <structure name="primitive_cell" >
  <crystal>
   <varray name="basis" >
    <v>       2.48194877       0.00000000       0.00000000 </v>
    <v>      -1.24097438       2.14943068       0.00000000 </v>
    <v>       0.00000000       0.00000000      12.00000000 </v>
   </varray>
   <i name="volume">     64.01732211 </i>
   <varray name="rec_basis" >
    <v>       0.40290920       0.23261974      -0.00000000 </v>
    <v>       0.00000000       0.46523947      -0.00000000 </v>
    <v>       0.00000000       0.00000000       0.08333333 </v>
   </varray>
  </crystal>
  <varray name="positions" >
   <v>       0.00328338       0.00176573       0.14167004 </v>
   <v>       0.33004024      -0.33510065       0.14167024 </v>
  </varray>
 </structure>
 <varray name="primitive_index" >
  <v type="int" >        1 </v>
  <v type="int" >        2 </v>
 </varray>
 <kpoints>
  <generation param="Monkhorst-Pack">
   <v type="int" name="divisions">       3        3        1 </v>
   <v name="usershift">      0.00000000       0.00000000       0.00000000 </v>
   <v name="genvec1">      0.33333333       0.00000000      -0.00000000 </v>
   <v name="genvec2">      0.00000000       0.33333333       0.00000000 </v>
   <v name="genvec3">      0.00000000       0.00000000       1.00000000 </v>
   <v name="shift">      0.00000000       0.00000000       0.00000000 </v>
  </generation>
  <varray name="kpointlist" >
   <v>       0.00000000       0.00000000       0.00000000 </v>
   <v>       0.33333333       0.00000000       0.00000000 </v>
   <v>       0.00000000       0.33333333       0.00000000 </v>
   <v>       0.33333333       0.33333333       0.00000000 </v>
   <v>      -0.33333333       0.33333333       0.00000000 </v>
  </varray>
  <varray name="weights" >
   <v>       0.11111111 </v>
   <v>       0.22222222 </v>
   <v>       0.22222222 </v>
   <v>       0.22222222 </v>
   <v>       0.22222222 </v>
  </varray>
 </kpoints>
 <parameters>
  <separator name="general" >
   <i type="string" name="SYSTEM">raman</i>
   <i type="logical" name="LCOMPAT"> F  </i>
  </separator>
  <separator name="electronic" >
   <i type="string" name="PREC">n</i>
   <i name="ENMAX">    400.00000000</i>
   <i name="ENAUG">    644.87300000</i>
   <i name="EDIFF">      0.00010000</i>
   <i type="int" name="IALGO">    38</i>
   <i type="int" name="IWAVPR">    10</i>
   <i type="int" name="NBANDS">    14</i>
   <i name="NELECT">      8.00000000</i>
   <i type="int" name="TURBO">     0</i>
   <i type="int" name="IRESTART">     0</i>
   <i type="int" name="NREBOOT">     0</i>
   <i type="int" name="NMIN">     0</i>
   <i name="EREF">      0.00000000</i>
   <separator name="electronic smearing" >
    <i type="int" name="ISMEAR">     1</i>
    <i name="SIGMA">      0.20000000</i>
    <i name="KSPACING">      0.50000000</i>
    <i type="logical" name="KGAMMA"> T  </i>
   </separator>
   <separator name="electronic projectors" >
    <i type="logical" name="LREAL"> T  </i>
    <v name="ROPT">     -0.00050000</v>
    <i type="int" name="LMAXPAW">  -100</i>
    <i type="int" name="LMAXMIX">     2</i>
    <i type="logical" name="NLSPLINE"> F  </i>
   </separator>
   <separator name="electronic startup" >
    <i type="int" name="ISTART">     0</i>
    <i type="int" name="ICHARG">     2</i>
    <i type="int" name="INIWAV">     1</i>
   </separator>
   <separator name="electronic spin" >
    <i type="int" name="ISPIN">     1</i>
    <i type="logical" name="LNONCOLLINEAR"> F  </i>
    <v name="MAGMOM">      1.00000000      1.00000000</v>
    <i name="NUPDOWN">     -1.00000000</i>
    <i type="logical" name="LSORBIT"> F  </i>
    <v name="SAXIS">      0.00000000      0.00000000      1.00000000</v>
    <i type="logical" name="LSPIRAL"> F  </i>
    <v name="QSPIRAL">      0.00000000      0.00000000      0.00000000</v>
    <i type="logical" name="LZEROZ"> F  </i>
   </separator>
   <separator name="electronic exchange-correlation" >
    <i type="logical" name="LASPH"> F  </i>
    <i type="logical" name="LMETAGGA"> F  </i>
   </separator>
   <separator name="electronic convergence" >
    <i type="int" name="NELM">    60</i>
    <i type="int" name="NELMDL">    -5</i>
    <i type="int" name="NELMIN">     4</i>
    <i name="ENINI">    400.00000000</i>
    <separator name="electronic convergence detail" >
     <i type="logical" name="LDIAG"> T  </i>
     <i type="logical" name="LSUBROT"> F  </i>
     <i name="WEIMIN">      0.00000000</i>
     <i name="EBREAK">      0.00000179</i>
     <i name="DEPER">      0.30000000</i>
     <i type="int" name="NRMM">     4</i>
     <i name="TIME">      0.40000000</i>
    </separator>
   </separator>
   <separator name="electronic mixer" >
    <i name="AMIX">      0.40000000</i>
    <i name="BMIX">      1.00000000</i>
    <i name="AMIN">      0.10000000</i>
    <i name="AMIX_MAG">      1.60000000</i>
    <i name="BMIX_MAG">      1.00000000</i>
    <separator name="electronic mixer details" >
     <i type="int" name="IMIX">     4</i>
     <i type="logical" name="MIXFIRST"> F  </i>
     <i type="int" name="MAXMIX">   -45</i>
     <i name="WC">    100.00000000</i>
     <i type="int" name="INIMIX">     1</i>
     <i type="int" name="MIXPRE">     1</i>
     <i type="int" name="MREMOVE">     5</i>
    </separator>
   </separator>
   <separator name="electronic dipolcorrection" >
    <i type="logical" name="LDIPOL"> F  </i>
    <i type="logical" name="LMONO"> F  </i>
    <i type="int" name="IDIPOL">     0</i>
    <i name="EPSILON">      1.00000000</i>
    <v name="DIPOL">   -100.00000000   -100.00000000   -100.00000000</v>
    <i name="EFIELD">      0.00000000</i>
   </separator>
  </separator>
  <separator name="grids" >
   <i type="int" name="NGX">    12</i>
   <i type="int" name="NGY">    12</i>
   <i type="int" name="NGZ">    60</i>
   <i type="int" name="NGXF">    24</i>
   <i type="int" name="NGYF">    24</i>
   <i type="int" name="NGZF">   120</i>
   <i type="logical" name="ADDGRID"> T  </i>
  </separator>
  <separator name="ionic" >
   <i type="int" name="NSW">     0</i>
   <i type="int" name="IBRION">    -1</i>
   <i type="int" name="MDALGO">     0</i>
   <i type="int" name="ISIF">     2</i>
   <i name="PSTRESS">      0.00000000</i>
   <i name="EDIFFG">      0.00100000</i>
   <i type="int" name="NFREE">     0</i>
   <i name="POTIM">      0.50000000</i>
   <i name="SMASS">     -3.00000000</i>
   <i name="SCALEE">      1.00000000</i>
  </separator>
  <separator name="ionic md" >
   <i name="TEBEG">      0.00010000</i>
   <i name="TEEND">      0.00010000</i>
   <i type="int" name="NBLOCK">     1</i>
   <i type="int" name="KBLOCK">     1</i>
   <i type="int" name="NPACO">   256</i>
   <i name="APACO">     16.00000000</i>
  </separator>
  <separator name="symmetry" >
   <i type="int" name="ISYM">     0</i>
   <i name="SYMPREC">      0.00001000</i>
  </separator>
  <separator name="dos" >
   <i type="int" name="LORBIT">     0</i>
   <v name="RWIGS">     -1.00000000</v>
   <i type="int" name="NEDOS">   301</i>
   <i name="EMIN">     10.00000000</i>
   <i name="EMAX">    -10.00000000</i>
   <i name="EFERMI">      0.00000000</i>
  </separator>
  <separator name="writing" >
   <i type="int" name="NWRITE">     3</i>
   <i type="logical" name="LWAVE"> F  </i>
   <i type="logical" name="LDOWNSAMPLE"> F  </i>
   <i type="logical" name="LCHARG"> F  </i>
   <i type="logical" name="LPARD"> F  </i>
   <i type="logical" name="LVTOT"> F  </i>
   <i type="logical" name="LVHAR"> F  </i>
   <i type="logical" name="LELF"> F  </i>
   <i type="logical" name="LOPTICS"> F  </i>
   <v name="STM">      0.00000000      0.00000000      0.00000000      0.00000000      0.00000000      0.00000000      0.00000000</v>
  </separator>
  <separator name="performance" >
   <i type="int" name="NPAR">     7</i>
   <i type="int" name="NSIM">     4</i>
   <i type="int" name="NBLK">    -1</i>
   <i type="logical" name="LPLANE"> T  </i>
   <i type="logical" name="LSCALAPACK"> F  </i>
   <i type="logical" name="LSCAAWARE"> F  </i>
   <i type="logical" name="LSCALU"> F  </i>
   <i type="logical" name="LASYNC"> F  </i>
   <i type="logical" name="LORBITALREAL"> F  </i>
  </separator>
  <separator name="miscellaneous" >
   <i type="int" name="IDIOT">     3</i>
   <i type="int" name="ISPECIAL">     0</i>
   <i type="logical" name="LMUSIC"> F  </i>
   <v name="POMASS">     12.01100000</v>
   <v name="DARWINR">      0.00000000</v>
   <v name="DARWINV">      1.00000000</v>
   <i type="logical" name="LCORR"> T  </i>
  </separator>
  <i type="logical" name="GGA_COMPAT"> T  </i>
  <i type="logical" name="LBERRY"> F  </i>
  <i type="int" name="ICORELEVEL">     0</i>
  <i type="logical" name="LDAU"> F  </i>
  <i type="int" name="I_CONSTRAINED_M">     0</i>
  <separator name="electronic exchange-correlation" >
   <i type="string" name="GGA">--</i>
   <i type="int" name="VOSKOWN">     0</i>
   <i type="logical" name="LHFCALC"> F  </i>
   <i type="string" name="PRECFOCK"></i>
   <i type="logical" name="LSYMGRAD"> F  </i>
   <i type="logical" name="LHFONE"> F  </i>
   <i type="logical" name="LRHFCALC"> F  </i>
   <i type="logical" name="LTHOMAS"> F  </i>
   <i type="logical" name="LMODELHF"> F  </i>
   <i name="ENCUT4O">     -1.00000000</i>
   <i type="int" name="EXXOEP">     0</i>
   <i type="int" name="FOURORBIT">     0</i>
   <i name="AEXX">      0.00000000</i>
   <i name="HFALPHA">      0.00000000</i>
   <i name="MCALPHA">      0.00000000</i>
   <i name="ALDAX">      1.00000000</i>
   <i name="AGGAX">      1.00000000</i>
   <i name="ALDAC">      1.00000000</i>
   <i name="AGGAC">      1.00000000</i>
   <i type="int" name="NKREDX">     1</i>
   <i type="int" name="NKREDY">     1</i>
   <i type="int" name="NKREDZ">     1</i>
   <i type="logical" name="SHIFTRED"> F  </i>
   <i type="logical" name="ODDONLY"> F  </i>
   <i type="logical" name="EVENONLY"> F  </i>
   <i type="int" name="LMAXFOCK">     0</i>
   <i type="int" name="NMAXFOCKAE">     0</i>
   <i type="logical" name="LFOCKAEDFT"> F  </i>
   <i name="HFSCREEN">      0.00000000</i>
   <i name="HFSCREENC">      0.00000000</i>
   <i type="int" name="NBANDSGWLOW">     0</i>
  </separator>
  <separator name="vdW DFT" >
   <i type="logical" name="LUSE_VDW"> F  </i>
   <i name="Zab_VDW">     -0.84910000</i>
   <i name="PARAM1">      0.12340000</i>
   <i name="PARAM2">      1.00000000</i>
   <i name="PARAM3">      0.00000000</i>
  </separator>
  <separator name="model GW" >
   <i type="int" name="MODEL_GW">     0</i>
   <i name="MODEL_EPS0">     19.20519663</i>
   <i name="MODEL_ALPHA">      1.00000000</i>
  </separator>
  <separator name="linear response parameters" >
   <i type="logical" name="LEPSILON"> T  </i>
   <i type="logical" name="LRPA"> F  </i>
   <i type="logical" name="LNABLA"> F  </i>
   <i type="logical" name="LVEL"> F  </i>
   <i type="int" name="KINTER">     0</i>
   <i name="CSHIFT">      0.10000000</i>
   <i name="OMEGAMAX">     -1.00000000</i>
   <i name="DEG_THRESHOLD">      0.00200000</i>
   <i name="RTIME">     -0.10000000</i>
   <i name="WPLASMAI">      0.00000000</i>
   <v name="DFIELD">      0.00000000      0.00000000      0.00000000</v>
   <v name="WPLASMA">      0.00000000      0.00000000      0.00000000      0.00000000      0.00000000      0.00000000      0.00000000      0.00000000      0.00000000</v>
  </separator>
  <separator name="orbital magnetization" >
   <i type="logical" name="NUCIND"> F  </i>
   <v name="MAGPOS">      0.00000000      0.00000000      0.00000000</v>
   <i type="logical" name="LNICSALL"> T  </i>
   <i type="logical" name="ORBITALMAG"> F  </i>
   <i type="logical" name="LMAGBLOCH"> F  </i>
   <i type="logical" name="LCHIMAG"> F  </i>
   <i type="logical" name="LGAUGE"> T  </i>
   <i type="int" name="MAGATOM">     0</i>
   <v name="MAGDIPOL">      0.00000000      0.00000000      0.00000000</v>
   <v name="AVECCONST">      0.00000000      0.00000000      0.00000000</v>
  </separator>
  <separator name="response functions" >
   <i type="logical" name="LADDER"> F  </i>
   <i type="logical" name="LRPAFORCE"> F  </i>
   <i type="logical" name="LFXC"> F  </i>
   <i type="logical" name="LHARTREE"> T  </i>
   <i type="int" name="IBSE">     0</i>
   <v type="int" name="KPOINT">    -1     0     0     0</v>
   <i type="logical" name="LTCTE"> F  </i>
   <i type="logical" name="LTETE"> F  </i>
   <i type="logical" name="LTRIPLET"> F  </i>
   <i type="logical" name="LFXCEPS"> F  </i>
   <i type="logical" name="LFXHEG"> F  </i>
   <i type="int" name="NATURALO">     2</i>
   <i type="logical" name="L2ORDER"> F  </i>
   <i type="logical" name="LMP2LT"> F  </i>
   <i type="logical" name="LUSEW"> F  </i>
   <i name="ENCUTGW">     -2.00000000</i>
   <i name="ENCUTGWSOFT">     -2.00000000</i>
   <i name="ENCUTLF">     -1.00000000</i>
   <i type="int" name="LMAXMP2">    -1</i>
   <i name="SCISSOR">      0.00000000</i>
   <i type="int" name="NOMEGA">     0</i>
   <i type="int" name="NOMEGAR">     0</i>
   <i type="int" name="NBANDSGW">    -1</i>
   <i type="int" name="NBANDSO">    -1</i>
   <i type="int" name="NBANDSV">    -1</i>
   <i type="int" name="NELM">     1</i>
   <i type="int" name="NELMHF">     1</i>
   <i type="int" name="DIM">     3</i>
   <i type="int" name="ANTIRES">     0</i>
   <i name="OMEGAMAX">    -30.00000000</i>
   <i name="OMEGAMIN">    -30.00000000</i>
   <i name="OMEGATL">   -200.00000000</i>
   <i type="int" name="OMEGAGRID">   140</i>
   <i name="CSHIFT">     -0.10000000</i>
   <i type="logical" name="SELFENERGY"> F  </i>
   <i type="logical" name="LSPECTRAL"> F  </i>
   <i type="logical" name="LSPECTRALGW"> F  </i>
   <i type="logical" name="LSINGLES"> F  </i>
   <i type="logical" name="LFERMIGW"> F  </i>
   <i type="logical" name="ODDONLYGW"> F  </i>
   <i type="logical" name="EVENONLYGW"> F  </i>
   <i type="int" name="NKREDLFX">     1</i>
   <i type="int" name="NKREDLFY">     1</i>
   <i type="int" name="NKREDLFZ">     1</i>
   <i type="int" name="MAXMEM">  2800</i>
   <i type="int" name="TELESCOPE">     0</i>
   <i type="int" name="TAUPAR">     1</i>
   <i type="int" name="OMEGAPAR">    -1</i>
   <i name="LAMBDA">      1.00000000</i>
  </separator>
  <separator name="External order field" >
   <i name="OFIELD_KAPPA">      0.00000000</i>
   <v name="OFIELD_K">      0.00000000      0.00000000      0.00000000</v>
   <i name="OFIELD_Q6_NEAR">      0.00000000</i>
   <i name="OFIELD_Q6_FAR">      0.00000000</i>
   <i name="OFIELD_A">      0.00000000</i>
  </separator>
 </parameters>
 <atominfo>
  <atoms>       2 </atoms>
  <types>       1 </types>
  <array name="atoms" >
   <dimension dim="1">ion</dimension>
   <field type="string">element</field>
   <field type="int">atomtype</field>
   <set>
    <rc><c>C </c><c>   1</c></rc>
    <rc><c>C </c><c>   1</c></rc>
   </set>
  </array>
  <array name="atomtypes" >
   <dimension dim="1">type</dimension>
   <field type="int">atomspertype</field>
   <field type="string">element</field>
   <field>mass</field>
   <field>valence</field>
   <field type="string">pseudopotential</field>
   <set>
    <rc><c>   2</c><c>C </c><c>     12.01100000</c><c>      4.00000000</c><c> PAW_PBE C 08Apr2002                    </c></rc>
   </set>
  </array>
 </atominfo>
 <structure name="initialpos" >
  <crystal>
   <varray name="basis" >
    <v>       2.48194877       0.00000000       0.00000000 </v>
    <v>      -1.24097438       2.14943068       0.00000000 </v>
    <v>       0.00000000       0.00000000      12.00000000 </v>
   </varray>
   <i name="volume">     64.01732211 </i>
   <varray name="rec_basis" >
    <v>       0.40290920       0.23261974      -0.00000000 </v>
    <v>       0.00000000       0.46523947      -0.00000000 </v>
    <v>       0.00000000       0.00000000       0.08333333 </v>
   </varray>
  </crystal>
  <varray name="positions" >
   <v>       0.00328338       0.00176573       0.14167004 </v>
   <v>       0.33004024       0.66489935       0.14167024 </v>
  </varray>
 </structure>
 <calculation>
  <scstep>
   <time name="dav">    0.20    0.38</time>
   <time name="total">    0.21    0.39</time>
   <energy>
    <i name="alphaZ">      5.09113229 </i>
    <i name="ewald">    551.15178025 </i>
    <i name="hartreedc">   -777.06221196 </i>
    <i name="XCdc">     27.46742033 </i>
    <i name="pawpsdc">     75.66288619 </i>
    <i name="pawaedc">    -77.96384553 </i>
    <i name="eentropy">     -0.00279994 </i>
    <i name="bandstr">    -85.39526949 </i>
    <i name="atom">    294.25444774 </i>
    <i name="e_fr_energy">     13.20353988 </i>
    <i name="e_wo_entrp">     13.20633982 </i>
    <i name="e_0_energy">     13.20447320 </i>
   </energy>
  </scstep>
  <scstep>
   <time name="dav">    0.22    0.40</time>
   <time name="total">    0.22    0.41</time>
   <energy>
    <i name="e_fr_energy">    -18.79116864 </i>
    <i name="e_wo_entrp">    -18.79006938 </i>
    <i name="e_0_energy">    -18.79080222 </i>
   </energy>
  </scstep>
  <scstep>
   <time name="dav">    0.22    0.43</time>
   <time name="total">    0.22    0.43</time>
   <energy>
    <i name="e_fr_energy">    -19.16058034 </i>
    <i name="e_wo_entrp">    -19.15164096 </i>
    <i name="e_0_energy">    -19.15760055 </i>
   </energy>
  </scstep>
  <scstep>
   <time name="dav">    0.17    0.36</time>
   <time name="total">    0.17    0.36</time>
   <energy>
    <i name="e_fr_energy">    -19.16099208 </i>
    <i name="e_wo_entrp">    -19.15204660 </i>
    <i name="e_0_energy">    -19.15801025 </i>
   </energy>
  </scstep>
  <scstep>
   <time name="dav">    0.13    0.31</time>
   <time name="total">    0.14    0.33</time>
   <energy>
    <i name="e_fr_energy">    -19.16099310 </i>
    <i name="e_wo_entrp">    -19.15204762 </i>
    <i name="e_0_energy">    -19.15801127 </i>
   </energy>
  </scstep>
  <scstep>
   <time name="dav">    0.20    0.37</time>
   <time name="total">    0.22    0.39</time>
   <energy>
    <i name="e_fr_energy">    -18.27171688 </i>
    <i name="e_wo_entrp">    -18.25928400 </i>
    <i name="e_0_energy">    -18.26757259 </i>
   </energy>
  </scstep>
  <scstep>
   <time name="dav">    0.17    0.42</time>
   <time name="total">    0.19    0.43</time>
   <energy>
    <i name="e_fr_energy">    -17.92901414 </i>
    <i name="e_wo_entrp">    -17.91406786 </i>
    <i name="e_0_energy">    -17.92403205 </i>
   </energy>
  </scstep>
  <scstep>
   <time name="dav">    0.22    0.50</time>
   <time name="total">    0.24    0.52</time>
   <energy>
    <i name="e_fr_energy">    -17.91920760 </i>
    <i name="e_wo_entrp">    -17.90507976 </i>
    <i name="e_0_energy">    -17.91449832 </i>
   </energy>
  </scstep>
  <scstep>
   <time name="dav">    0.39    0.72</time>
   <time name="total">    0.42    0.75</time>
   <energy>
    <i name="e_fr_energy">    -17.91721152 </i>
    <i name="e_wo_entrp">    -17.90292735 </i>
    <i name="e_0_energy">    -17.91245013 </i>
   </energy>
  </scstep>
  <scstep>
   <time name="dav">    0.15    0.29</time>
   <time name="total">    0.17    0.31</time>
   <energy>
    <i name="e_fr_energy">    -17.91562538 </i>
    <i name="e_wo_entrp">    -17.90110027 </i>
    <i name="e_0_energy">    -17.91078367 </i>
   </energy>
  </scstep>
  <scstep>
   <time name="dav">    0.26    0.41</time>
   <time name="total">    0.28    0.42</time>
   <energy>
    <i name="e_fr_energy">    -17.91463003 </i>
    <i name="e_wo_entrp">    -17.90006531 </i>
    <i name="e_0_energy">    -17.90977512 </i>
   </energy>
  </scstep>
  <scstep>
   <time name="dav">    0.11    0.25</time>
   <time name="total">    0.13    0.28</time>
   <energy>
    <i name="e_fr_energy">    -17.91546557 </i>
    <i name="e_wo_entrp">    -17.90114942 </i>
    <i name="e_0_energy">    -17.91069352 </i>
   </energy>
  </scstep>
  <scstep>
   <time name="dav">    0.18    0.32</time>
   <time name="total">    0.20    0.35</time>
   <energy>
    <i name="e_fr_energy">    -17.91679811 </i>
    <i name="e_wo_entrp">    -17.90243168 </i>
    <i name="e_0_energy">    -17.91200930 </i>
   </energy>
  </scstep>
  <scstep>
   <time name="dav">    0.15    0.31</time>
   <time name="total">    0.17    0.33</time>
   <energy>
    <i name="e_fr_energy">    -17.91713455 </i>
    <i name="e_wo_entrp">    -17.90270048 </i>
    <i name="e_0_energy">    -17.91232319 </i>
   </energy>
  </scstep>
  <scstep>
   <time name="dav">    0.14    0.29</time>
   <time name="total">    0.16    0.32</time>
   <energy>
    <i name="e_fr_energy">    -17.91728091 </i>
    <i name="e_wo_entrp">    -17.90286973 </i>
    <i name="e_0_energy">    -17.91247718 </i>
   </energy>
  </scstep>
  <scstep>
   <time name="dav">    0.12    0.31</time>
   <time name="total">    0.13    0.32</time>
   <energy>
    <i name="alphaZ">      5.09113229 </i>
    <i name="ewald">    551.15178025 </i>
    <i name="hartreedc">   -808.27995636 </i>
    <i name="XCdc">     28.67054117 </i>
    <i name="pawpsdc">    137.50990768 </i>
    <i name="pawaedc">   -140.08123476 </i>
    <i name="eentropy">     -0.01441486 </i>
    <i name="bandstr">    -86.21949455 </i>
    <i name="atom">    294.25444774 </i>
    <i name="e_fr_energy">    -17.91729138 </i>
    <i name="e_wo_entrp">    -17.90287652 </i>
    <i name="e_0_energy">    -17.91248643 </i>
   </energy>
  </scstep>
  <structure>
   <crystal>
    <varray name="basis" >
     <v>       2.48194877       0.00000000       0.00000000 </v>
     <v>      -1.24097438       2.14943068       0.00000000 </v>
     <v>       0.00000000       0.00000000      12.00000000 </v>
    </varray>
    <i name="volume">     64.01732211 </i>
    <varray name="rec_basis" >
     <v>       0.40290920       0.23261974      -0.00000000 </v>
     <v>       0.00000000       0.46523947      -0.00000000 </v>
     <v>       0.00000000       0.00000000       0.08333333 </v>
    </varray>
   </crystal>
   <varray name="positions" >
    <v>       0.00328338       0.00176573       0.14167004 </v>
    <v>       0.33004024       0.66489935       0.14167024 </v>
   </varray>
  </structure>
  <varray name="forces" >
   <v>       0.80174536       0.51102098       0.00003935 </v>
   <v>      -0.80174536      -0.51102098      -0.00003935 </v>
  </varray>
  <varray name="stress" >
   <v>       7.84595622      32.39305848      -0.00004980 </v>
   <v>      32.39305849     -33.48933971      -0.00001842 </v>
   <v>      -0.00004981      -0.00001843      -7.25567680 </v>
  </varray>
  <energy>
   <i name="e_fr_energy">    -17.91729138 </i>
   <i name="e_wo_entrp">    -17.91248643 </i>
   <i name="e_0_energy">     -0.01441486 </i>
  </energy>
  <scstep>
   <time name="total">    0.05    0.07</time>
   <energy>
    <i name="e_fr_energy">    -50.42874661 </i>
    <i name="e_wo_entrp">    -50.42874661 </i>
    <i name="e_0_energy">    -50.42874661 </i>
   </energy>
  </scstep>
  <scstep>
   <time name="total">    0.03    0.04</time>
   <energy>
    <i name="e_fr_energy">    -63.89937701 </i>
    <i name="e_wo_entrp">    -63.89937701 </i>
    <i name="e_0_energy">    -63.89937701 </i>
   </energy>
  </scstep>
  <scstep>
   <time name="total">    0.04    0.05</time>
   <energy>
    <i name="e_fr_energy">    -63.91799263 </i>
    <i name="e_wo_entrp">    -63.91799263 </i>
    <i name="e_0_energy">    -63.91799263 </i>
   </energy>
  </scstep>
  <scstep>
   <time name="total">    0.03    0.03</time>
   <energy>
    <i name="e_fr_energy">    -63.91801326 </i>
    <i name="e_wo_entrp">    -63.91801326 </i>
    <i name="e_0_energy">    -63.91801326 </i>
   </energy>
  </scstep>
  <scstep>
   <time name="total">    0.04    0.04</time>
   <energy>
    <i name="e_fr_energy">    -35.77652103 </i>
    <i name="e_wo_entrp">    -35.77652103 </i>
    <i name="e_0_energy">    -35.77652103 </i>
   </energy>
  </scstep>
  <scstep>
   <time name="total">    0.03    0.04</time>
   <energy>
    <i name="e_fr_energy">    -42.16738439 </i>
    <i name="e_wo_entrp">    -42.16738439 </i>
    <i name="e_0_energy">    -42.16738439 </i>
   </energy>
  </scstep>
  <scstep>
   <time name="total">    0.03    0.04</time>
   <energy>
    <i name="e_fr_energy">    -42.15552732 </i>
    <i name="e_wo_entrp">    -42.15552732 </i>
    <i name="e_0_energy">    -42.15552732 </i>
   </energy>
  </scstep>
  <scstep>
   <time name="total">    0.02    0.03</time>
   <energy>
    <i name="e_fr_energy">    -42.15527764 </i>
    <i name="e_wo_entrp">    -42.15527764 </i>
    <i name="e_0_energy">    -42.15527764 </i>
   </energy>
  </scstep>
  <scstep>
   <time name="total">    0.03    0.03</time>
   <energy>
    <i name="e_fr_energy">    -42.15527437 </i>
    <i name="e_wo_entrp">    -42.15527437 </i>
    <i name="e_0_energy">    -42.15527437 </i>
   </energy>
  </scstep>
  <scstep>
   <time name="total">    0.04    0.04</time>
   <energy>
    <i name="e_fr_energy">    -28.11964753 </i>
    <i name="e_wo_entrp">    -28.11964753 </i>
    <i name="e_0_energy">    -28.11964753 </i>
   </energy>
  </scstep>
  <scstep>
   <time name="total">    0.04    0.05</time>
   <energy>
    <i name="e_fr_energy">    -29.37281871 </i>
    <i name="e_wo_entrp">    -29.37281871 </i>
    <i name="e_0_energy">    -29.37281871 </i>
   </energy>
  </scstep>
  <scstep>
   <time name="total">    0.04    0.05</time>
   <energy>
    <i name="e_fr_energy">    -29.38407389 </i>
    <i name="e_wo_entrp">    -29.38407389 </i>
    <i name="e_0_energy">    -29.38407389 </i>
   </energy>
  </scstep>
  <scstep>
   <time name="total">    0.03    0.04</time>
   <energy>
    <i name="e_fr_energy">    -29.38438908 </i>
    <i name="e_wo_entrp">    -29.38438908 </i>
    <i name="e_0_energy">    -29.38438908 </i>
   </energy>
  </scstep>
  <scstep>
   <time name="total">    0.03    0.03</time>
   <energy>
    <i name="e_fr_energy">    -29.38439974 </i>
    <i name="e_wo_entrp">    -29.38439974 </i>
    <i name="e_0_energy">    -29.38439974 </i>
   </energy>
  </scstep>
  <scstep>
   <time name="total">    0.05    0.09</time>
   <energy>
    <i name="e_fr_energy">  -1317.79051805 </i>
    <i name="e_wo_entrp">  -1317.79051805 </i>
    <i name="e_0_energy">  -1317.79051805 </i>
   </energy>
  </scstep>
  <scstep>
   <time name="total">    0.07    0.10</time>
   <energy>
    <i name="e_fr_energy">  -1340.97159884 </i>
    <i name="e_wo_entrp">  -1340.97159884 </i>
    <i name="e_0_energy">  -1340.97159884 </i>
   </energy>
  </scstep>
  <scstep>
   <time name="total">    0.08    0.11</time>
   <energy>
    <i name="e_fr_energy">  -1340.97152181 </i>
    <i name="e_wo_entrp">  -1340.97152181 </i>
    <i name="e_0_energy">  -1340.97152181 </i>
   </energy>
  </scstep>
  <scstep>
   <time name="total">    0.05    0.08</time>
   <energy>
    <i name="e_fr_energy">  -1340.97133383 </i>
    <i name="e_wo_entrp">  -1340.97133383 </i>
    <i name="e_0_energy">  -1340.97133383 </i>
   </energy>
  </scstep>
  <scstep>
   <time name="total">    0.05    0.08</time>
   <energy>
    <i name="e_fr_energy">  -1340.97132457 </i>
    <i name="e_wo_entrp">  -1340.97132457 </i>
    <i name="e_0_energy">  -1340.97132457 </i>
   </energy>
  </scstep>
  <scstep>
   <time name="total">    0.07    0.11</time>
   <energy>
    <i name="e_fr_energy">   -540.10395204 </i>
    <i name="e_wo_entrp">   -540.10395204 </i>
    <i name="e_0_energy">   -540.10395204 </i>
   </energy>
  </scstep>
  <scstep>
   <time name="total">    0.05    0.08</time>
   <energy>
    <i name="e_fr_energy">   -547.09611176 </i>
    <i name="e_wo_entrp">   -547.09611176 </i>
    <i name="e_0_energy">   -547.09611176 </i>
   </energy>
  </scstep>
  <scstep>
   <time name="total">    0.05    0.08</time>
   <energy>
    <i name="e_fr_energy">   -547.09597751 </i>
    <i name="e_wo_entrp">   -547.09597751 </i>
    <i name="e_0_energy">   -547.09597751 </i>
   </energy>
  </scstep>
  <scstep>
   <time name="total">    0.05    0.08</time>
   <energy>
    <i name="e_fr_energy">   -547.09589849 </i>
    <i name="e_wo_entrp">   -547.09589849 </i>
    <i name="e_0_energy">   -547.09589849 </i>
   </energy>
  </scstep>
  <scstep>
   <time name="total">    0.07    0.11</time>
   <energy>
    <i name="e_fr_energy">     -0.08642951 </i>
    <i name="e_wo_entrp">     -0.08642951 </i>
    <i name="e_0_energy">     -0.08642951 </i>
   </energy>
  </scstep>
  <scstep>
   <time name="total">    0.05    0.08</time>
   <energy>
    <i name="e_fr_energy">     -0.08795360 </i>
    <i name="e_wo_entrp">     -0.08795360 </i>
    <i name="e_0_energy">     -0.08795360 </i>
   </energy>
  </scstep>
  <scstep>
   <time name="total">    0.05    0.08</time>
   <energy>
    <i name="e_fr_energy">     -0.08796049 </i>
    <i name="e_wo_entrp">     -0.08796049 </i>
    <i name="e_0_energy">     -0.08796049 </i>
   </energy>
  </scstep>
  <scstep>
   <time name="total">    0.05    0.08</time>
   <energy>
    <i name="e_fr_energy">     -0.08796042 </i>
    <i name="e_wo_entrp">     -0.08796042 </i>
    <i name="e_0_energy">     -0.08796042 </i>
   </energy>
  </scstep>
  <varray name="epsilon_rpa" >
   <v>    7581.85028868    4841.40251993       0.00074049 </v>
   <v>    4841.40656884    3093.87156038       0.00047294 </v>
   <v>       0.00074047       0.00047292       1.49727571 </v>
  </varray>
  <scstep>
   <time name="total">    0.07    0.10</time>
   <energy>
    <i name="e_fr_energy">  -1317.79051805 </i>
    <i name="e_wo_entrp">  -1317.79051805 </i>
    <i name="e_0_energy">  -1317.79051805 </i>
   </energy>
  </scstep>
  <scstep>
   <time name="total">    0.06    0.09</time>
   <energy>
    <i name="e_fr_energy">  -1340.97159884 </i>
    <i name="e_wo_entrp">  -1340.97159884 </i>
    <i name="e_0_energy">  -1340.97159884 </i>
   </energy>
  </scstep>
  <scstep>
   <time name="total">    0.05    0.08</time>
   <energy>
    <i name="e_fr_energy">  -2562.06655757 </i>
    <i name="e_wo_entrp">  -2562.06655757 </i>
    <i name="e_0_energy">  -2562.06655757 </i>
   </energy>
  </scstep>
  <scstep>
   <time name="total">    0.06    0.09</time>
   <energy>
    <i name="e_fr_energy">   -485.13503448 </i>
    <i name="e_wo_entrp">   -485.13503448 </i>
    <i name="e_0_energy">   -485.13503448 </i>
   </energy>
  </scstep>
  <scstep>
   <time name="total">    0.05    0.09</time>
   <energy>
    <i name="e_fr_energy">   -620.64176995 </i>
    <i name="e_wo_entrp">   -620.64176995 </i>
    <i name="e_0_energy">   -620.64176995 </i>
   </energy>
  </scstep>
  <scstep>
   <time name="total">    0.07    0.10</time>
   <energy>
    <i name="e_fr_energy">   -660.03757240 </i>
    <i name="e_wo_entrp">   -660.03757240 </i>
    <i name="e_0_energy">   -660.03757240 </i>
   </energy>
  </scstep>
  <scstep>
   <time name="total">    0.06    0.09</time>
   <energy>
    <i name="e_fr_energy">   -664.59719689 </i>
    <i name="e_wo_entrp">   -664.59719689 </i>
    <i name="e_0_energy">   -664.59719689 </i>
   </energy>
  </scstep>
  <scstep>
   <time name="total">    0.06    0.09</time>
   <energy>
    <i name="e_fr_energy">   -664.98132196 </i>
    <i name="e_wo_entrp">   -664.98132196 </i>
    <i name="e_0_energy">   -664.98132196 </i>
   </energy>
  </scstep>
  <scstep>
   <time name="total">    0.06    0.09</time>
   <energy>
    <i name="e_fr_energy">   -664.94322174 </i>
    <i name="e_wo_entrp">   -664.94322174 </i>
    <i name="e_0_energy">   -664.94322174 </i>
   </energy>
  </scstep>
  <scstep>
   <time name="total">    0.05    0.08</time>
   <energy>
    <i name="e_fr_energy">   -664.99656658 </i>
    <i name="e_wo_entrp">   -664.99656658 </i>
    <i name="e_0_energy">   -664.99656658 </i>
   </energy>
  </scstep>
  <scstep>
   <time name="total">    0.06    0.09</time>
   <energy>
    <i name="e_fr_energy">   -665.02250607 </i>
    <i name="e_wo_entrp">   -665.02250607 </i>
    <i name="e_0_energy">   -665.02250607 </i>
   </energy>
  </scstep>
  <scstep>
   <time name="total">    0.06    0.09</time>
   <energy>
    <i name="e_fr_energy">   -665.01312224 </i>
    <i name="e_wo_entrp">   -665.01312224 </i>
    <i name="e_0_energy">   -665.01312224 </i>
   </energy>
  </scstep>
  <scstep>
   <time name="total">    0.06    0.09</time>
   <energy>
    <i name="e_fr_energy">   -665.01412959 </i>
    <i name="e_wo_entrp">   -665.01412959 </i>
    <i name="e_0_energy">   -665.01412959 </i>
   </energy>
  </scstep>
  <scstep>
   <time name="total">    0.05    0.09</time>
   <energy>
    <i name="e_fr_energy">   -665.01416221 </i>
    <i name="e_wo_entrp">   -665.01416221 </i>
    <i name="e_0_energy">   -665.01416221 </i>
   </energy>
  </scstep>
  <scstep>
   <time name="total">    0.07    0.10</time>
   <energy>
    <i name="e_fr_energy">   -540.10395204 </i>
    <i name="e_wo_entrp">   -540.10395204 </i>
    <i name="e_0_energy">   -540.10395204 </i>
   </energy>
  </scstep>
  <scstep>
   <time name="total">    0.06    0.09</time>
   <energy>
    <i name="e_fr_energy">   -547.09611176 </i>
    <i name="e_wo_entrp">   -547.09611176 </i>
    <i name="e_0_energy">   -547.09611176 </i>
   </energy>
  </scstep>
  <scstep>
   <time name="total">    0.06    0.09</time>
   <energy>
    <i name="e_fr_energy">  -1140.27491534 </i>
    <i name="e_wo_entrp">  -1140.27491534 </i>
    <i name="e_0_energy">  -1140.27491534 </i>
   </energy>
  </scstep>
  <scstep>
   <time name="total">    0.07    0.10</time>
   <energy>
    <i name="e_fr_energy">   -184.03679410 </i>
    <i name="e_wo_entrp">   -184.03679410 </i>
    <i name="e_0_energy">   -184.03679410 </i>
   </energy>
  </scstep>
  <scstep>
   <time name="total">    0.08    0.11</time>
   <energy>
    <i name="e_fr_energy">   -247.64644435 </i>
    <i name="e_wo_entrp">   -247.64644435 </i>
    <i name="e_0_energy">   -247.64644435 </i>
   </energy>
  </scstep>
  <scstep>
   <time name="total">    0.10    0.13</time>
   <energy>
    <i name="e_fr_energy">   -256.31427469 </i>
    <i name="e_wo_entrp">   -256.31427469 </i>
    <i name="e_0_energy">   -256.31427469 </i>
   </energy>
  </scstep>
  <scstep>
   <time name="total">    0.09    0.12</time>
   <energy>
    <i name="e_fr_energy">   -257.66792282 </i>
    <i name="e_wo_entrp">   -257.66792282 </i>
    <i name="e_0_energy">   -257.66792282 </i>
   </energy>
  </scstep>
  <scstep>
   <time name="total">    0.08    0.11</time>
   <energy>
    <i name="e_fr_energy">   -257.70775379 </i>
    <i name="e_wo_entrp">   -257.70775379 </i>
    <i name="e_0_energy">   -257.70775379 </i>
   </energy>
  </scstep>
  <scstep>
   <time name="total">    0.10    0.13</time>
   <energy>
    <i name="e_fr_energy">   -257.75621496 </i>
    <i name="e_wo_entrp">   -257.75621496 </i>
    <i name="e_0_energy">   -257.75621496 </i>
   </energy>
  </scstep>
  <scstep>
   <time name="total">    0.10    0.13</time>
   <energy>
    <i name="e_fr_energy">   -257.76499112 </i>
    <i name="e_wo_entrp">   -257.76499112 </i>
    <i name="e_0_energy">   -257.76499112 </i>
   </energy>
  </scstep>
  <scstep>
   <time name="total">    0.09    0.12</time>
   <energy>
    <i name="e_fr_energy">   -257.76482327 </i>
    <i name="e_wo_entrp">   -257.76482327 </i>
    <i name="e_0_energy">   -257.76482327 </i>
   </energy>
  </scstep>
  <scstep>
   <time name="total">    0.07    0.10</time>
   <energy>
    <i name="e_fr_energy">   -257.76436636 </i>
    <i name="e_wo_entrp">   -257.76436636 </i>
    <i name="e_0_energy">   -257.76436636 </i>
   </energy>
  </scstep>
  <scstep>
   <time name="total">    0.07    0.11</time>
   <energy>
    <i name="e_fr_energy">   -257.76470617 </i>
    <i name="e_wo_entrp">   -257.76470617 </i>
    <i name="e_0_energy">   -257.76470617 </i>
   </energy>
  </scstep>
  <scstep>
   <time name="total">    0.06    0.10</time>
   <energy>
    <i name="e_fr_energy">   -257.76466497 </i>
    <i name="e_wo_entrp">   -257.76466497 </i>
    <i name="e_0_energy">   -257.76466497 </i>
   </energy>
  </scstep>
  <scstep>
   <time name="total">    0.07    0.10</time>
   <energy>
    <i name="e_fr_energy">     -0.08642951 </i>
    <i name="e_wo_entrp">     -0.08642951 </i>
    <i name="e_0_energy">     -0.08642951 </i>
   </energy>
  </scstep>
  <scstep>
   <time name="total">    0.06    0.09</time>
   <energy>
    <i name="e_fr_energy">     -0.08795360 </i>
    <i name="e_wo_entrp">     -0.08795360 </i>
    <i name="e_0_energy">     -0.08795360 </i>
   </energy>
  </scstep>
  <scstep>
   <time name="total">    0.05    0.08</time>
   <energy>
    <i name="e_fr_energy">     -0.05253290 </i>
    <i name="e_wo_entrp">     -0.05253290 </i>
    <i name="e_0_energy">     -0.05253290 </i>
   </energy>
  </scstep>
  <scstep>
   <time name="total">    0.05    0.08</time>
   <energy>
    <i name="e_fr_energy">     -0.04298270 </i>
    <i name="e_wo_entrp">     -0.04298270 </i>
    <i name="e_0_energy">     -0.04298270 </i>
   </energy>
  </scstep>
  <scstep>
   <time name="total">    0.06    0.09</time>
   <energy>
    <i name="e_fr_energy">     -0.04159213 </i>
    <i name="e_wo_entrp">     -0.04159213 </i>
    <i name="e_0_energy">     -0.04159213 </i>
   </energy>
  </scstep>
  <scstep>
   <time name="total">    0.05    0.09</time>
   <energy>
    <i name="e_fr_energy">     -0.04066523 </i>
    <i name="e_wo_entrp">     -0.04066523 </i>
    <i name="e_0_energy">     -0.04066523 </i>
   </energy>
  </scstep>
  <scstep>
   <time name="total">    0.06    0.10</time>
   <energy>
    <i name="e_fr_energy">     -0.04052465 </i>
    <i name="e_wo_entrp">     -0.04052465 </i>
    <i name="e_0_energy">     -0.04052465 </i>
   </energy>
  </scstep>
  <scstep>
   <time name="total">    0.06    0.09</time>
   <energy>
    <i name="e_fr_energy">     -0.04048745 </i>
    <i name="e_wo_entrp">     -0.04048745 </i>
    <i name="e_0_energy">     -0.04048745 </i>
   </energy>
  </scstep>
  <varray name="epsilon" >
   <v>    2627.80857067    1639.96972770       0.06185790 </v>
   <v>    1677.28924702    1049.11377377       0.03950822 </v>
   <v>       0.00006753       0.00004134       1.21162827 </v>
  </varray>
  <array name="born_charges" >
   <dimension dim="1">ion</dimension>
   <set>
    <v>      -9.99125036      15.76359719       0.00083767 </v>
    <v>      -6.26994783       9.89153574       0.00045287 </v>
    <v>      -0.00002132       0.00003235      -0.00004828 </v>
   </set>
   <set>
    <v>       9.99125036     -15.76359719      -0.00083767 </v>
    <v>       6.26994783      -9.89153574      -0.00045287 </v>
    <v>       0.00002132      -0.00003235       0.00004828 </v>
   </set>
  </array>
  <time name="totalsc">    9.04   29.76</time>
  <eigenvalues>
   <array>
    <dimension dim="1">band</dimension>
    <dimension dim="2">kpoint</dimension>
    <dimension dim="3">spin</dimension>
    <field>eigene</field>
    <field>occ</field>
    <set>
     <set comment="spin 1">
      <set comment="kpoint 1">
       <r>  -21.1463    1.0000 </r>
       <r>   -9.2849    1.0000 </r>
       <r>   -4.9699    1.0000 </r>
       <r>   -4.6263    1.0000 </r>
       <r>    1.4488   -0.0000 </r>
       <r>    2.5987   -0.0000 </r>
       <r>    3.3920   -0.0000 </r>
       <r>    6.1882    0.0000 </r>
       <r>    6.5629    0.0000 </r>
       <r>    6.6867    0.0000 </r>
       <r>    7.7953    0.0000 </r>
       <r>    9.4492    0.0000 </r>
       <r>   10.2834    0.0000 </r>
       <r>   12.7893    0.0000 </r>
      </set>
      <set comment="kpoint 2">
       <r>  -18.5857    1.0000 </r>
       <r>  -11.2963    1.0000 </r>
       <r>   -7.5873    1.0000 </r>
       <r>   -6.3575    1.0000 </r>
       <r>    3.1215   -0.0000 </r>
       <r>    4.9586    0.0000 </r>
       <r>    5.7215    0.0000 </r>
       <r>    6.1334    0.0000 </r>
       <r>    6.9525    0.0000 </r>
       <r>    9.9400    0.0000 </r>
       <r>   11.2501    0.0000 </r>
       <r>   13.7769    0.0000 </r>
       <r>   14.4182    0.0000 </r>
       <r>   14.8029    0.0000 </r>
      </set>
      <set comment="kpoint 3">
       <r>  -18.5930    1.0000 </r>
       <r>  -11.3773    1.0000 </r>
       <r>   -7.4544    1.0000 </r>
       <r>   -6.3241    1.0000 </r>
       <r>    3.0154   -0.0000 </r>
       <r>    4.9566    0.0000 </r>
       <r>    5.7491    0.0000 </r>
       <r>    6.1292    0.0000 </r>
       <r>    6.9525    0.0000 </r>
       <r>    9.9431    0.0000 </r>
       <r>   11.2504    0.0000 </r>
       <r>   13.8008    0.0000 </r>
       <r>   14.1700    0.0000 </r>
       <r>   14.8647    0.0000 </r>
      </set>
      <set comment="kpoint 4">
       <r>  -14.3392    1.0000 </r>
       <r>  -14.2918    1.0000 </r>
       <r>  -12.1848    1.0000 </r>
       <r>   -1.8652    0.8120 </r>
       <r>   -1.7042    0.1880 </r>
       <r>    8.7645    0.0000 </r>
       <r>   10.8733    0.0000 </r>
       <r>   11.0351    0.0000 </r>
       <r>   11.5844    0.0000 </r>
       <r>   13.1671    0.0000 </r>
       <r>   13.1970    0.0000 </r>
       <r>   13.1996    0.0000 </r>
       <r>   13.3105    0.0000 </r>
       <r>   13.7305    0.0000 </r>
      </set>
      <set comment="kpoint 5">
       <r>  -18.5927    1.0000 </r>
       <r>  -11.3739    1.0000 </r>
       <r>   -7.4598    1.0000 </r>
       <r>   -6.3257    1.0000 </r>
       <r>    3.0204   -0.0000 </r>
       <r>    4.9566    0.0000 </r>
       <r>    5.7461    0.0000 </r>
       <r>    6.1294    0.0000 </r>
       <r>    6.9525    0.0000 </r>
       <r>    9.9430    0.0000 </r>
       <r>   11.2503    0.0000 </r>
       <r>   13.7992    0.0000 </r>
       <r>   14.1845    0.0000 </r>
       <r>   14.8618    0.0000 </r>
      </set>
     </set>
    </set>
   </array>
  </eigenvalues>
  <separator name="orbital magnetization" >
   <v name="MAGDIPOLOUT">      0.00000000      0.00000000      0.00000000</v>
  </separator>
  <dos>
   <i name="efermi">     -1.78472293 </i>
   <total>
    <array>
     <dimension dim="1">gridpoints</dimension>
     <dimension dim="2">spin</dimension>
     <field>energy</field>
     <field>total</field>
     <field>integrated</field>
     <set>
      <set comment="spin 1">
       <r>   -23.1463     0.0000     0.0000 </r>
       <r>   -23.0129     0.0000     0.0000 </r>
       <r>   -22.8795    -0.0000    -0.0000 </r>
       <r>   -22.7462    -0.0000    -0.0000 </r>
       <r>   -22.6128    -0.0000    -0.0000 </r>
       <r>   -22.4794    -0.0000    -0.0000 </r>
       <r>   -22.3461    -0.0000    -0.0000 </r>
       <r>   -22.2127    -0.0000    -0.0000 </r>
       <r>   -22.0793    -0.0000    -0.0000 </r>
       <r>   -21.9460    -0.0000    -0.0000 </r>
       <r>   -21.8126    -0.0000    -0.0000 </r>
       <r>   -21.6792    -0.0009    -0.0001 </r>
       <r>   -21.5458    -0.0125    -0.0018 </r>
       <r>   -21.4125    -0.0432    -0.0075 </r>
       <r>   -21.2791     0.1454     0.0118 </r>
       <r>   -21.1457     0.7482     0.1116 </r>
       <r>   -21.0124     0.7439     0.2108 </r>
       <r>   -20.8790     0.1416     0.2297 </r>
       <r>   -20.7456    -0.0432     0.2240 </r>
       <r>   -20.6123    -0.0123     0.2223 </r>
       <r>   -20.4789    -0.0009     0.2222 </r>
       <r>   -20.3455    -0.0000     0.2222 </r>
       <r>   -20.2122    -0.0000     0.2222 </r>
       <r>   -20.0788    -0.0000     0.2222 </r>
       <r>   -19.9454    -0.0000     0.2222 </r>
       <r>   -19.8120    -0.0000     0.2222 </r>
       <r>   -19.6787    -0.0000     0.2222 </r>
       <r>   -19.5453    -0.0000     0.2222 </r>
       <r>   -19.4119    -0.0000     0.2222 </r>
       <r>   -19.2786    -0.0001     0.2222 </r>
       <r>   -19.1452    -0.0031     0.2218 </r>
       <r>   -19.0118    -0.0527     0.2148 </r>
       <r>   -18.8785    -0.2462     0.1819 </r>
       <r>   -18.7451     0.4746     0.2452 </r>
       <r>   -18.6117     3.9324     0.7697 </r>
       <r>   -18.4783     4.9061     1.4240 </r>
       <r>   -18.3450     1.3401     1.6028 </r>
       <r>   -18.2116    -0.2431     1.5703 </r>
       <r>   -18.0782    -0.1021     1.5567 </r>
       <r>   -17.9449    -0.0086     1.5556 </r>
       <r>   -17.8115    -0.0002     1.5556 </r>
       <r>   -17.6781    -0.0000     1.5556 </r>
       <r>   -17.5448    -0.0000     1.5556 </r>
       <r>   -17.4114    -0.0000     1.5556 </r>
       <r>   -17.2780    -0.0000     1.5556 </r>
       <r>   -17.1446     0.0000     1.5556 </r>
       <r>   -17.0113     0.0000     1.5556 </r>
       <r>   -16.8779     0.0000     1.5556 </r>
       <r>   -16.7445     0.0000     1.5556 </r>
       <r>   -16.6112     0.0000     1.5556 </r>
       <r>   -16.4778     0.0000     1.5556 </r>
       <r>   -16.3444     0.0000     1.5556 </r>
       <r>   -16.2111     0.0000     1.5556 </r>
       <r>   -16.0777     0.0000     1.5556 </r>
       <r>   -15.9443    -0.0000     1.5556 </r>
       <r>   -15.8109    -0.0000     1.5556 </r>
       <r>   -15.6776    -0.0000     1.5556 </r>
       <r>   -15.5442    -0.0000     1.5556 </r>
       <r>   -15.4108    -0.0000     1.5556 </r>
       <r>   -15.2775    -0.0000     1.5556 </r>
       <r>   -15.1441    -0.0000     1.5556 </r>
       <r>   -15.0107    -0.0000     1.5555 </r>
       <r>   -14.8774    -0.0020     1.5553 </r>
       <r>   -14.7440    -0.0331     1.5509 </r>
       <r>   -14.6106    -0.1533     1.5304 </r>
       <r>   -14.4772     0.2806     1.5679 </r>
       <r>   -14.3439     2.4660     1.8967 </r>
       <r>   -14.2105     3.2832     2.3346 </r>
       <r>   -14.0771     1.0421     2.4736 </r>
       <r>   -13.9438    -0.1338     2.4558 </r>
       <r>   -13.8104    -0.0770     2.4455 </r>
       <r>   -13.6770    -0.0075     2.4445 </r>
       <r>   -13.5437    -0.0003     2.4444 </r>
       <r>   -13.4103    -0.0000     2.4444 </r>
       <r>   -13.2769    -0.0000     2.4444 </r>
       <r>   -13.1435    -0.0000     2.4444 </r>
       <r>   -13.0102    -0.0000     2.4444 </r>
       <r>   -12.8768    -0.0000     2.4444 </r>
       <r>   -12.7434    -0.0009     2.4443 </r>
       <r>   -12.6101    -0.0164     2.4421 </r>
       <r>   -12.4767    -0.0807     2.4314 </r>
       <r>   -12.3433     0.1374     2.4497 </r>
       <r>   -12.2100     1.2747     2.6197 </r>
       <r>   -12.0766     1.6575     2.8408 </r>
       <r>   -11.9432     0.4773     2.9044 </r>
       <r>   -11.8098    -0.1096     2.8898 </r>
       <r>   -11.6765    -0.2227     2.8601 </r>
       <r>   -11.5431     0.1043     2.8740 </r>
       <r>   -11.4097     2.8137     3.2492 </r>
       <r>   -11.2764     5.0285     3.9199 </r>
       <r>   -11.1430     2.4356     4.2447 </r>
       <r>   -11.0096     0.0216     4.2476 </r>
       <r>   -10.8763    -0.1635     4.2258 </r>
       <r>   -10.7429    -0.0255     4.2224 </r>
       <r>   -10.6095    -0.0013     4.2222 </r>
       <r>   -10.4761    -0.0000     4.2222 </r>
       <r>   -10.3428    -0.0000     4.2222 </r>
       <r>   -10.2094    -0.0000     4.2222 </r>
       <r>   -10.0760    -0.0000     4.2222 </r>
       <r>    -9.9427    -0.0000     4.2222 </r>
       <r>    -9.8093    -0.0011     4.2221 </r>
       <r>    -9.6759    -0.0143     4.2202 </r>
       <r>    -9.5426    -0.0428     4.2145 </r>
       <r>    -9.4092     0.1758     4.2379 </r>
       <r>    -9.2758     0.7794     4.3419 </r>
       <r>    -9.1424     0.7093     4.4365 </r>
       <r>    -9.0091     0.1140     4.4517 </r>
       <r>    -8.8757    -0.0427     4.4460 </r>
       <r>    -8.7423    -0.0107     4.4445 </r>
       <r>    -8.6090    -0.0007     4.4444 </r>
       <r>    -8.4756    -0.0000     4.4444 </r>
       <r>    -8.3422    -0.0000     4.4444 </r>
       <r>    -8.2089    -0.0002     4.4444 </r>
       <r>    -8.0755    -0.0052     4.4437 </r>
       <r>    -7.9421    -0.0568     4.4361 </r>
       <r>    -7.8087    -0.1549     4.4155 </r>
       <r>    -7.6754     0.5507     4.4889 </r>
       <r>    -7.5420     3.1144     4.9043 </r>
       <r>    -7.4086     4.5735     5.5143 </r>
       <r>    -7.2753     2.1446     5.8003 </r>
       <r>    -7.1419     0.0043     5.8009 </r>
       <r>    -7.0085    -0.1501     5.7808 </r>
       <r>    -6.8752    -0.0269     5.7773 </r>
       <r>    -6.7418    -0.0703     5.7679 </r>
       <r>    -6.6084    -0.2508     5.7344 </r>
       <r>    -6.4750     0.7678     5.8368 </r>
       <r>    -6.3417     4.3068     6.4112 </r>
       <r>    -6.2083     4.5789     7.0219 </r>
       <r>    -6.0749     1.0087     7.1565 </r>
       <r>    -5.9416    -0.2504     7.1231 </r>
       <r>    -5.8082    -0.0831     7.1120 </r>
       <r>    -5.6748    -0.0063     7.1111 </r>
       <r>    -5.5415    -0.0005     7.1111 </r>
       <r>    -5.4081    -0.0065     7.1102 </r>
       <r>    -5.2747    -0.0375     7.1052 </r>
       <r>    -5.1414     0.0375     7.1102 </r>
       <r>    -5.0080     0.5593     7.1848 </r>
       <r>    -4.8746     0.8164     7.2937 </r>
       <r>    -4.7412     0.5072     7.3613 </r>
       <r>    -4.6079     0.7759     7.4648 </r>
       <r>    -4.4745     0.6472     7.5511 </r>
       <r>    -4.3411     0.0845     7.5624 </r>
       <r>    -4.2078    -0.0416     7.5569 </r>
       <r>    -4.0744    -0.0092     7.5556 </r>
       <r>    -3.9410    -0.0005     7.5556 </r>
       <r>    -3.8077    -0.0000     7.5556 </r>
       <r>    -3.6743    -0.0000     7.5556 </r>
       <r>    -3.5409    -0.0000     7.5556 </r>
       <r>    -3.4075    -0.0000     7.5556 </r>
       <r>    -3.2742    -0.0000     7.5556 </r>
       <r>    -3.1408    -0.0000     7.5556 </r>
       <r>    -3.0074    -0.0000     7.5556 </r>
       <r>    -2.8741    -0.0000     7.5556 </r>
       <r>    -2.7407    -0.0000     7.5556 </r>
       <r>    -2.6073    -0.0000     7.5556 </r>
       <r>    -2.4740    -0.0002     7.5555 </r>
       <r>    -2.3406    -0.0064     7.5547 </r>
       <r>    -2.2072    -0.0573     7.5470 </r>
       <r>    -2.0738    -0.0750     7.5370 </r>
       <r>    -1.9405     0.7057     7.6311 </r>
       <r>    -1.8071     2.2888     7.9364 </r>
       <r>    -1.6737     2.6346     8.2878 </r>
       <r>    -1.5404     1.2306     8.4519 </r>
       <r>    -1.4070     0.0476     8.4582 </r>
       <r>    -1.2736    -0.0874     8.4466 </r>
       <r>    -1.1403    -0.0153     8.4446 </r>
       <r>    -1.0069    -0.0008     8.4444 </r>
       <r>    -0.8735    -0.0000     8.4444 </r>
       <r>    -0.7401    -0.0000     8.4444 </r>
       <r>    -0.6068    -0.0000     8.4444 </r>
       <r>    -0.4734    -0.0000     8.4444 </r>
       <r>    -0.3400     0.0000     8.4444 </r>
       <r>    -0.2067    -0.0000     8.4444 </r>
       <r>    -0.0733    -0.0000     8.4444 </r>
       <r>     0.0601    -0.0000     8.4444 </r>
       <r>     0.1934    -0.0000     8.4444 </r>
       <r>     0.3268    -0.0000     8.4444 </r>
       <r>     0.4602    -0.0000     8.4444 </r>
       <r>     0.5936    -0.0000     8.4444 </r>
       <r>     0.7269    -0.0000     8.4444 </r>
       <r>     0.8603    -0.0002     8.4444 </r>
       <r>     0.9937    -0.0047     8.4438 </r>
       <r>     1.1270    -0.0328     8.4394 </r>
       <r>     1.2604     0.0077     8.4404 </r>
       <r>     1.3938     0.4909     8.5059 </r>
       <r>     1.5271     0.8803     8.6233 </r>
       <r>     1.6605     0.3753     8.6734 </r>
       <r>     1.7939    -0.0212     8.6705 </r>
       <r>     1.9273    -0.0260     8.6671 </r>
       <r>     2.0606    -0.0037     8.6666 </r>
       <r>     2.1940    -0.0116     8.6650 </r>
       <r>     2.3274    -0.0431     8.6593 </r>
       <r>     2.4607     0.1261     8.6761 </r>
       <r>     2.5941     0.6920     8.7684 </r>
       <r>     2.7275     0.5739     8.8449 </r>
       <r>     2.8608     0.3633     8.8934 </r>
       <r>     2.9942     2.8508     9.2736 </r>
       <r>     3.1276     4.7791     9.9110 </r>
       <r>     3.2610     2.5273    10.2481 </r>
       <r>     3.3943     0.8426    10.3604 </r>
       <r>     3.5277     0.5805    10.4379 </r>
       <r>     3.6611     0.1070    10.4521 </r>
       <r>     3.7944    -0.0448    10.4462 </r>
       <r>     3.9278    -0.0120    10.4446 </r>
       <r>     4.0612    -0.0008    10.4444 </r>
       <r>     4.1945    -0.0000    10.4444 </r>
       <r>     4.3279    -0.0004    10.4444 </r>
       <r>     4.4613    -0.0123    10.4428 </r>
       <r>     4.5947    -0.1266    10.4259 </r>
       <r>     4.7280    -0.2046    10.3986 </r>
       <r>     4.8614     1.7578    10.6330 </r>
       <r>     4.9948     5.1400    11.3185 </r>
       <r>     5.1281     3.4692    11.7812 </r>
       <r>     5.2615     0.2217    11.8108 </r>
       <r>     5.3949    -0.3834    11.7596 </r>
       <r>     5.5282    -0.1502    11.7396 </r>
       <r>     5.6616     2.2624    12.0413 </r>
       <r>     5.7950     5.0697    12.7175 </r>
       <r>     5.9284     2.8053    13.0916 </r>
       <r>     6.0617     2.7446    13.4577 </r>
       <r>     6.1951     5.8626    14.2396 </r>
       <r>     6.3285     3.2933    14.6788 </r>
       <r>     6.4618     0.3100    14.7202 </r>
       <r>     6.5952     0.8006    14.8269 </r>
       <r>     6.7286     1.2478    14.9933 </r>
       <r>     6.8619     2.5097    15.3281 </r>
       <r>     6.9953     5.1877    16.0199 </r>
       <r>     7.1287     3.2690    16.4559 </r>
       <r>     7.2621     0.1681    16.4783 </r>
       <r>     7.3954    -0.2299    16.4477 </r>
       <r>     7.5288    -0.0790    16.4371 </r>
       <r>     7.6622     0.1426    16.4562 </r>
       <r>     7.7955     0.7470    16.5558 </r>
       <r>     7.9289     0.7451    16.6552 </r>
       <r>     8.0623     0.1426    16.6742 </r>
       <r>     8.1956    -0.0439    16.6683 </r>
       <r>     8.3290    -0.0261    16.6649 </r>
       <r>     8.4624    -0.0770    16.6546 </r>
       <r>     8.5958     0.0893    16.6665 </r>
       <r>     8.7291     1.1774    16.8235 </r>
       <r>     8.8625     1.7048    17.0509 </r>
       <r>     8.9959     0.5619    17.1258 </r>
       <r>     9.1292    -0.1038    17.1120 </r>
       <r>     9.2626    -0.0306    17.1079 </r>
       <r>     9.3960     0.4922    17.1736 </r>
       <r>     9.5293     0.8178    17.2826 </r>
       <r>     9.6627     0.1125    17.2976 </r>
       <r>     9.7961     0.5954    17.3770 </r>
       <r>     9.9294     4.1168    17.9261 </r>
       <r>    10.0628     4.7159    18.5551 </r>
       <r>    10.1962     1.4663    18.7506 </r>
       <r>    10.3296     0.6154    18.8327 </r>
       <r>    10.4629     0.4237    18.8892 </r>
       <r>    10.5963    -0.0823    18.8782 </r>
       <r>    10.7297     0.1037    18.8920 </r>
       <r>    10.8630     1.3872    19.0771 </r>
       <r>    10.9964     2.4569    19.4047 </r>
       <r>    11.1298     3.2094    19.8328 </r>
       <r>    11.2631     5.1998    20.5263 </r>
       <r>    11.3965     4.0792    21.0703 </r>
       <r>    11.5299     1.5573    21.2780 </r>
       <r>    11.6633     1.5016    21.4783 </r>
       <r>    11.7966     0.6844    21.5696 </r>
       <r>    11.9300    -0.0472    21.5633 </r>
       <r>    12.0634    -0.0518    21.5564 </r>
       <r>    12.1967    -0.0061    21.5556 </r>
       <r>    12.3301    -0.0046    21.5549 </r>
       <r>    12.4635    -0.0317    21.5507 </r>
       <r>    12.5968     0.0004    21.5508 </r>
       <r>    12.7302     0.4422    21.6098 </r>
       <r>    12.8636     0.6802    21.7005 </r>
       <r>    12.9970     0.3673    21.7495 </r>
       <r>    13.1303     2.8944    22.1355 </r>
       <r>    13.2637     6.2732    22.9722 </r>
       <r>    13.3971     3.9355    23.4970 </r>
       <r>    13.5304     0.3034    23.5375 </r>
       <r>    13.6638     1.6167    23.7531 </r>
       <r>    13.7972     6.2056    24.5807 </r>
       <r>    13.9305     5.0402    25.2530 </r>
       <r>    14.0639     1.5883    25.4648 </r>
       <r>    14.1973     2.8804    25.8489 </r>
       <r>    14.3307     3.2164    26.2779 </r>
       <r>    14.4640     1.9620    26.5396 </r>
       <r>    14.5974     0.7074    26.6339 </r>
       <r>    14.7308     1.4083    26.8218 </r>
       <r>    14.8641     4.6925    27.4476 </r>
       <r>    14.9975     3.8788    27.9649 </r>
       <r>    15.1309     0.5588    28.0395 </r>
       <r>    15.2642    -0.2346    28.0082 </r>
       <r>    15.3976    -0.0574    28.0005 </r>
       <r>    15.5310    -0.0037    28.0000 </r>
       <r>    15.6644    -0.0001    28.0000 </r>
       <r>    15.7977    -0.0000    28.0000 </r>
       <r>    15.9311    -0.0000    28.0000 </r>
       <r>    16.0645    -0.0000    28.0000 </r>
       <r>    16.1978    -0.0000    28.0000 </r>
       <r>    16.3312     0.0000    28.0000 </r>
       <r>    16.4646     0.0000    28.0000 </r>
       <r>    16.5979     0.0000    28.0000 </r>
       <r>    16.7313     0.0000    28.0000 </r>
       <r>    16.8647     0.0000    28.0000 </r>
      </set>
     </set>
    </array>
   </total>
  </dos>
 </calculation>
 <structure name="finalpos" >
  <crystal>
   <varray name="basis" >
    <v>       2.48194877       0.00000000       0.00000000 </v>
    <v>      -1.24097438       2.14943068       0.00000000 </v>
    <v>       0.00000000       0.00000000      12.00000000 </v>
   </varray>
   <i name="volume">     64.01732211 </i>
   <varray name="rec_basis" >
    <v>       0.40290920       0.23261974      -0.00000000 </v>
    <v>       0.00000000       0.46523947      -0.00000000 </v>
    <v>       0.00000000       0.00000000       0.08333333 </v>
   </varray>
  </crystal>
  <varray name="positions" >
   <v>       0.00328338       0.00176573       0.14167004 </v>
   <v>       0.33004024       0.66489935       0.14167024 </v>
  </varray>
 </structure>
</modeling>
